V -t * -v 1.0a5 -a 0
A -t * -n 1 -p 0 -o 0x7fffffff -c 30 -a 1
A -t * -h 1 -m 1073741823 -s 0
n -t * -a 0 -s 0 -S UP -v circle -c black -i black
n -t * -a 1 -s 1 -S UP -v circle -c black -i black
n -t * -a 2 -s 2 -S UP -v circle -c black -i black
l -t * -s 0 -d 1 -S UP -r 100000000 -D 0.01 -c black -o right-down
l -t * -s 1 -d 2 -S UP -r 10000000 -D 0.001 -c black -o right-up
+ -t 1 -s 0 -d 1 -p tcp -e 40 -c 0 -i 0 -a 0 -x {0.0 2.0 0 ------- null}
- -t 1 -s 0 -d 1 -p tcp -e 40 -c 0 -i 0 -a 0 -x {0.0 2.0 0 ------- null}
h -t 1 -s 0 -d 1 -p tcp -e 40 -c 0 -i 0 -a 0 -x {0.0 2.0 -1 ------- null}
r -t 1.0100032 -s 0 -d 1 -p tcp -e 40 -c 0 -i 0 -a 0 -x {0.0 2.0 0 ------- null}
+ -t 1.0100032 -s 1 -d 2 -p tcp -e 40 -c 0 -i 0 -a 0 -x {0.0 2.0 0 ------- null}
- -t 1.0100032 -s 1 -d 2 -p tcp -e 40 -c 0 -i 0 -a 0 -x {0.0 2.0 0 ------- null}
h -t 1.0100032 -s 1 -d 2 -p tcp -e 40 -c 0 -i 0 -a 0 -x {0.0 2.0 -1 ------- null}
r -t 1.0110352 -s 1 -d 2 -p tcp -e 40 -c 0 -i 0 -a 0 -x {0.0 2.0 0 ------- null}
+ -t 1.0110352 -s 2 -d 1 -p ack -e 40 -c 0 -i 1 -a 0 -x {2.0 0.0 0 ------- null}
- -t 1.0110352 -s 2 -d 1 -p ack -e 40 -c 0 -i 1 -a 0 -x {2.0 0.0 0 ------- null}
h -t 1.0110352 -s 2 -d 1 -p ack -e 40 -c 0 -i 1 -a 0 -x {2.0 0.0 -1 ------- null}
r -t 1.0120672 -s 2 -d 1 -p ack -e 40 -c 0 -i 1 -a 0 -x {2.0 0.0 0 ------- null}
+ -t 1.0120672 -s 1 -d 0 -p ack -e 40 -c 0 -i 1 -a 0 -x {2.0 0.0 0 ------- null}
- -t 1.0120672 -s 1 -d 0 -p ack -e 40 -c 0 -i 1 -a 0 -x {2.0 0.0 0 ------- null}
h -t 1.0120672 -s 1 -d 0 -p ack -e 40 -c 0 -i 1 -a 0 -x {2.0 0.0 -1 ------- null}
r -t 1.0220704 -s 1 -d 0 -p ack -e 40 -c 0 -i 1 -a 0 -x {2.0 0.0 0 ------- null}
+ -t 1.0220704 -s 0 -d 1 -p tcp -e 1540 -c 0 -i 2 -a 0 -x {0.0 2.0 1 ------- null}
- -t 1.0220704 -s 0 -d 1 -p tcp -e 1540 -c 0 -i 2 -a 0 -x {0.0 2.0 1 ------- null}
h -t 1.0220704 -s 0 -d 1 -p tcp -e 1540 -c 0 -i 2 -a 0 -x {0.0 2.0 -1 ------- null}
+ -t 1.0220704 -s 0 -d 1 -p tcp -e 1540 -c 0 -i 3 -a 0 -x {0.0 2.0 2 ------- null}
- -t 1.0221936 -s 0 -d 1 -p tcp -e 1540 -c 0 -i 3 -a 0 -x {0.0 2.0 2 ------- null}
h -t 1.0221936 -s 0 -d 1 -p tcp -e 1540 -c 0 -i 3 -a 0 -x {0.0 2.0 -1 ------- null}
r -t 1.0321936 -s 0 -d 1 -p tcp -e 1540 -c 0 -i 2 -a 0 -x {0.0 2.0 1 ------- null}
+ -t 1.0321936 -s 1 -d 2 -p tcp -e 1540 -c 0 -i 2 -a 0 -x {0.0 2.0 1 ------- null}
- -t 1.0321936 -s 1 -d 2 -p tcp -e 1540 -c 0 -i 2 -a 0 -x {0.0 2.0 1 ------- null}
h -t 1.0321936 -s 1 -d 2 -p tcp -e 1540 -c 0 -i 2 -a 0 -x {0.0 2.0 -1 ------- null}
r -t 1.0323168 -s 0 -d 1 -p tcp -e 1540 -c 0 -i 3 -a 0 -x {0.0 2.0 2 ------- null}
+ -t 1.0323168 -s 1 -d 2 -p tcp -e 1540 -c 0 -i 3 -a 0 -x {0.0 2.0 2 ------- null}
- -t 1.0334256 -s 1 -d 2 -p tcp -e 1540 -c 0 -i 3 -a 0 -x {0.0 2.0 2 ------- null}
h -t 1.0334256 -s 1 -d 2 -p tcp -e 1540 -c 0 -i 3 -a 0 -x {0.0 2.0 -1 ------- null}
r -t 1.0344256 -s 1 -d 2 -p tcp -e 1540 -c 0 -i 2 -a 0 -x {0.0 2.0 1 ------- null}
+ -t 1.0344256 -s 2 -d 1 -p ack -e 40 -c 0 -i 4 -a 0 -x {2.0 0.0 1 ------- null}
- -t 1.0344256 -s 2 -d 1 -p ack -e 40 -c 0 -i 4 -a 0 -x {2.0 0.0 1 ------- null}
h -t 1.0344256 -s 2 -d 1 -p ack -e 40 -c 0 -i 4 -a 0 -x {2.0 0.0 -1 ------- null}
r -t 1.0354576 -s 2 -d 1 -p ack -e 40 -c 0 -i 4 -a 0 -x {2.0 0.0 1 ------- null}
+ -t 1.0354576 -s 1 -d 0 -p ack -e 40 -c 0 -i 4 -a 0 -x {2.0 0.0 1 ------- null}
- -t 1.0354576 -s 1 -d 0 -p ack -e 40 -c 0 -i 4 -a 0 -x {2.0 0.0 1 ------- null}
h -t 1.0354576 -s 1 -d 0 -p ack -e 40 -c 0 -i 4 -a 0 -x {2.0 0.0 -1 ------- null}
r -t 1.0356576 -s 1 -d 2 -p tcp -e 1540 -c 0 -i 3 -a 0 -x {0.0 2.0 2 ------- null}
+ -t 1.0356576 -s 2 -d 1 -p ack -e 40 -c 0 -i 5 -a 0 -x {2.0 0.0 2 ------- null}
- -t 1.0356576 -s 2 -d 1 -p ack -e 40 -c 0 -i 5 -a 0 -x {2.0 0.0 2 ------- null}
h -t 1.0356576 -s 2 -d 1 -p ack -e 40 -c 0 -i 5 -a 0 -x {2.0 0.0 -1 ------- null}
r -t 1.0366896 -s 2 -d 1 -p ack -e 40 -c 0 -i 5 -a 0 -x {2.0 0.0 2 ------- null}
+ -t 1.0366896 -s 1 -d 0 -p ack -e 40 -c 0 -i 5 -a 0 -x {2.0 0.0 2 ------- null}
- -t 1.0366896 -s 1 -d 0 -p ack -e 40 -c 0 -i 5 -a 0 -x {2.0 0.0 2 ------- null}
h -t 1.0366896 -s 1 -d 0 -p ack -e 40 -c 0 -i 5 -a 0 -x {2.0 0.0 -1 ------- null}
r -t 1.0454608 -s 1 -d 0 -p ack -e 40 -c 0 -i 4 -a 0 -x {2.0 0.0 1 ------- null}
+ -t 1.0454608 -s 0 -d 1 -p tcp -e 1540 -c 0 -i 6 -a 0 -x {0.0 2.0 3 ------- null}
- -t 1.0454608 -s 0 -d 1 -p tcp -e 1540 -c 0 -i 6 -a 0 -x {0.0 2.0 3 ------- null}
h -t 1.0454608 -s 0 -d 1 -p tcp -e 1540 -c 0 -i 6 -a 0 -x {0.0 2.0 -1 ------- null}
+ -t 1.0454608 -s 0 -d 1 -p tcp -e 1540 -c 0 -i 7 -a 0 -x {0.0 2.0 4 ------- null}
- -t 1.045584 -s 0 -d 1 -p tcp -e 1540 -c 0 -i 7 -a 0 -x {0.0 2.0 4 ------- null}
h -t 1.045584 -s 0 -d 1 -p tcp -e 1540 -c 0 -i 7 -a 0 -x {0.0 2.0 -1 ------- null}
r -t 1.0466928 -s 1 -d 0 -p ack -e 40 -c 0 -i 5 -a 0 -x {2.0 0.0 2 ------- null}
+ -t 1.0466928 -s 0 -d 1 -p tcp -e 1540 -c 0 -i 8 -a 0 -x {0.0 2.0 5 ------- null}
- -t 1.0466928 -s 0 -d 1 -p tcp -e 1540 -c 0 -i 8 -a 0 -x {0.0 2.0 5 ------- null}
h -t 1.0466928 -s 0 -d 1 -p tcp -e 1540 -c 0 -i 8 -a 0 -x {0.0 2.0 -1 ------- null}
+ -t 1.0466928 -s 0 -d 1 -p tcp -e 1540 -c 0 -i 9 -a 0 -x {0.0 2.0 6 ------- null}
- -t 1.046816 -s 0 -d 1 -p tcp -e 1540 -c 0 -i 9 -a 0 -x {0.0 2.0 6 ------- null}
h -t 1.046816 -s 0 -d 1 -p tcp -e 1540 -c 0 -i 9 -a 0 -x {0.0 2.0 -1 ------- null}
r -t 1.055584 -s 0 -d 1 -p tcp -e 1540 -c 0 -i 6 -a 0 -x {0.0 2.0 3 ------- null}
+ -t 1.055584 -s 1 -d 2 -p tcp -e 1540 -c 0 -i 6 -a 0 -x {0.0 2.0 3 ------- null}
- -t 1.055584 -s 1 -d 2 -p tcp -e 1540 -c 0 -i 6 -a 0 -x {0.0 2.0 3 ------- null}
h -t 1.055584 -s 1 -d 2 -p tcp -e 1540 -c 0 -i 6 -a 0 -x {0.0 2.0 -1 ------- null}
r -t 1.0557072 -s 0 -d 1 -p tcp -e 1540 -c 0 -i 7 -a 0 -x {0.0 2.0 4 ------- null}
+ -t 1.0557072 -s 1 -d 2 -p tcp -e 1540 -c 0 -i 7 -a 0 -x {0.0 2.0 4 ------- null}
r -t 1.056816 -s 0 -d 1 -p tcp -e 1540 -c 0 -i 8 -a 0 -x {0.0 2.0 5 ------- null}
+ -t 1.056816 -s 1 -d 2 -p tcp -e 1540 -c 0 -i 8 -a 0 -x {0.0 2.0 5 ------- null}
- -t 1.056816 -s 1 -d 2 -p tcp -e 1540 -c 0 -i 7 -a 0 -x {0.0 2.0 4 ------- null}
h -t 1.056816 -s 1 -d 2 -p tcp -e 1540 -c 0 -i 7 -a 0 -x {0.0 2.0 -1 ------- null}
r -t 1.0569392 -s 0 -d 1 -p tcp -e 1540 -c 0 -i 9 -a 0 -x {0.0 2.0 6 ------- null}
+ -t 1.0569392 -s 1 -d 2 -p tcp -e 1540 -c 0 -i 9 -a 0 -x {0.0 2.0 6 ------- null}
r -t 1.057816 -s 1 -d 2 -p tcp -e 1540 -c 0 -i 6 -a 0 -x {0.0 2.0 3 ------- null}
+ -t 1.057816 -s 2 -d 1 -p ack -e 40 -c 0 -i 10 -a 0 -x {2.0 0.0 3 ------- null}
- -t 1.057816 -s 2 -d 1 -p ack -e 40 -c 0 -i 10 -a 0 -x {2.0 0.0 3 ------- null}
h -t 1.057816 -s 2 -d 1 -p ack -e 40 -c 0 -i 10 -a 0 -x {2.0 0.0 -1 ------- null}
- -t 1.058048 -s 1 -d 2 -p tcp -e 1540 -c 0 -i 8 -a 0 -x {0.0 2.0 5 ------- null}
h -t 1.058048 -s 1 -d 2 -p tcp -e 1540 -c 0 -i 8 -a 0 -x {0.0 2.0 -1 ------- null}
r -t 1.058848 -s 2 -d 1 -p ack -e 40 -c 0 -i 10 -a 0 -x {2.0 0.0 3 ------- null}
+ -t 1.058848 -s 1 -d 0 -p ack -e 40 -c 0 -i 10 -a 0 -x {2.0 0.0 3 ------- null}
- -t 1.058848 -s 1 -d 0 -p ack -e 40 -c 0 -i 10 -a 0 -x {2.0 0.0 3 ------- null}
h -t 1.058848 -s 1 -d 0 -p ack -e 40 -c 0 -i 10 -a 0 -x {2.0 0.0 -1 ------- null}
r -t 1.059048 -s 1 -d 2 -p tcp -e 1540 -c 0 -i 7 -a 0 -x {0.0 2.0 4 ------- null}
+ -t 1.059048 -s 2 -d 1 -p ack -e 40 -c 0 -i 11 -a 0 -x {2.0 0.0 4 ------- null}
- -t 1.059048 -s 2 -d 1 -p ack -e 40 -c 0 -i 11 -a 0 -x {2.0 0.0 4 ------- null}
h -t 1.059048 -s 2 -d 1 -p ack -e 40 -c 0 -i 11 -a 0 -x {2.0 0.0 -1 ------- null}
- -t 1.05928 -s 1 -d 2 -p tcp -e 1540 -c 0 -i 9 -a 0 -x {0.0 2.0 6 ------- null}
h -t 1.05928 -s 1 -d 2 -p tcp -e 1540 -c 0 -i 9 -a 0 -x {0.0 2.0 -1 ------- null}
r -t 1.06008 -s 2 -d 1 -p ack -e 40 -c 0 -i 11 -a 0 -x {2.0 0.0 4 ------- null}
+ -t 1.06008 -s 1 -d 0 -p ack -e 40 -c 0 -i 11 -a 0 -x {2.0 0.0 4 ------- null}
- -t 1.06008 -s 1 -d 0 -p ack -e 40 -c 0 -i 11 -a 0 -x {2.0 0.0 4 ------- null}
h -t 1.06008 -s 1 -d 0 -p ack -e 40 -c 0 -i 11 -a 0 -x {2.0 0.0 -1 ------- null}
r -t 1.06028 -s 1 -d 2 -p tcp -e 1540 -c 0 -i 8 -a 0 -x {0.0 2.0 5 ------- null}
+ -t 1.06028 -s 2 -d 1 -p ack -e 40 -c 0 -i 12 -a 0 -x {2.0 0.0 5 ------- null}
- -t 1.06028 -s 2 -d 1 -p ack -e 40 -c 0 -i 12 -a 0 -x {2.0 0.0 5 ------- null}
h -t 1.06028 -s 2 -d 1 -p ack -e 40 -c 0 -i 12 -a 0 -x {2.0 0.0 -1 ------- null}
r -t 1.061312 -s 2 -d 1 -p ack -e 40 -c 0 -i 12 -a 0 -x {2.0 0.0 5 ------- null}
+ -t 1.061312 -s 1 -d 0 -p ack -e 40 -c 0 -i 12 -a 0 -x {2.0 0.0 5 ------- null}
- -t 1.061312 -s 1 -d 0 -p ack -e 40 -c 0 -i 12 -a 0 -x {2.0 0.0 5 ------- null}
h -t 1.061312 -s 1 -d 0 -p ack -e 40 -c 0 -i 12 -a 0 -x {2.0 0.0 -1 ------- null}
r -t 1.061512 -s 1 -d 2 -p tcp -e 1540 -c 0 -i 9 -a 0 -x {0.0 2.0 6 ------- null}
+ -t 1.061512 -s 2 -d 1 -p ack -e 40 -c 0 -i 13 -a 0 -x {2.0 0.0 6 ------- null}
- -t 1.061512 -s 2 -d 1 -p ack -e 40 -c 0 -i 13 -a 0 -x {2.0 0.0 6 ------- null}
h -t 1.061512 -s 2 -d 1 -p ack -e 40 -c 0 -i 13 -a 0 -x {2.0 0.0 -1 ------- null}
r -t 1.062544 -s 2 -d 1 -p ack -e 40 -c 0 -i 13 -a 0 -x {2.0 0.0 6 ------- null}
+ -t 1.062544 -s 1 -d 0 -p ack -e 40 -c 0 -i 13 -a 0 -x {2.0 0.0 6 ------- null}
- -t 1.062544 -s 1 -d 0 -p ack -e 40 -c 0 -i 13 -a 0 -x {2.0 0.0 6 ------- null}
h -t 1.062544 -s 1 -d 0 -p ack -e 40 -c 0 -i 13 -a 0 -x {2.0 0.0 -1 ------- null}
r -t 1.0688512 -s 1 -d 0 -p ack -e 40 -c 0 -i 10 -a 0 -x {2.0 0.0 3 ------- null}
+ -t 1.0688512 -s 0 -d 1 -p tcp -e 1540 -c 0 -i 14 -a 0 -x {0.0 2.0 7 ------- null}
- -t 1.0688512 -s 0 -d 1 -p tcp -e 1540 -c 0 -i 14 -a 0 -x {0.0 2.0 7 ------- null}
h -t 1.0688512 -s 0 -d 1 -p tcp -e 1540 -c 0 -i 14 -a 0 -x {0.0 2.0 -1 ------- null}
+ -t 1.0688512 -s 0 -d 1 -p tcp -e 1540 -c 0 -i 15 -a 0 -x {0.0 2.0 8 ------- null}
- -t 1.0689744 -s 0 -d 1 -p tcp -e 1540 -c 0 -i 15 -a 0 -x {0.0 2.0 8 ------- null}
h -t 1.0689744 -s 0 -d 1 -p tcp -e 1540 -c 0 -i 15 -a 0 -x {0.0 2.0 -1 ------- null}
r -t 1.0700832 -s 1 -d 0 -p ack -e 40 -c 0 -i 11 -a 0 -x {2.0 0.0 4 ------- null}
+ -t 1.0700832 -s 0 -d 1 -p tcp -e 1540 -c 0 -i 16 -a 0 -x {0.0 2.0 9 ------- null}
- -t 1.0700832 -s 0 -d 1 -p tcp -e 1540 -c 0 -i 16 -a 0 -x {0.0 2.0 9 ------- null}
h -t 1.0700832 -s 0 -d 1 -p tcp -e 1540 -c 0 -i 16 -a 0 -x {0.0 2.0 -1 ------- null}
+ -t 1.0700832 -s 0 -d 1 -p tcp -e 1540 -c 0 -i 17 -a 0 -x {0.0 2.0 10 ------- null}
- -t 1.0702064 -s 0 -d 1 -p tcp -e 1540 -c 0 -i 17 -a 0 -x {0.0 2.0 10 ------- null}
h -t 1.0702064 -s 0 -d 1 -p tcp -e 1540 -c 0 -i 17 -a 0 -x {0.0 2.0 -1 ------- null}
r -t 1.0713152 -s 1 -d 0 -p ack -e 40 -c 0 -i 12 -a 0 -x {2.0 0.0 5 ------- null}
+ -t 1.0713152 -s 0 -d 1 -p tcp -e 1540 -c 0 -i 18 -a 0 -x {0.0 2.0 11 ------- null}
- -t 1.0713152 -s 0 -d 1 -p tcp -e 1540 -c 0 -i 18 -a 0 -x {0.0 2.0 11 ------- null}
h -t 1.0713152 -s 0 -d 1 -p tcp -e 1540 -c 0 -i 18 -a 0 -x {0.0 2.0 -1 ------- null}
+ -t 1.0713152 -s 0 -d 1 -p tcp -e 1540 -c 0 -i 19 -a 0 -x {0.0 2.0 12 ------- null}
- -t 1.0714384 -s 0 -d 1 -p tcp -e 1540 -c 0 -i 19 -a 0 -x {0.0 2.0 12 ------- null}
h -t 1.0714384 -s 0 -d 1 -p tcp -e 1540 -c 0 -i 19 -a 0 -x {0.0 2.0 -1 ------- null}
r -t 1.0725472 -s 1 -d 0 -p ack -e 40 -c 0 -i 13 -a 0 -x {2.0 0.0 6 ------- null}
+ -t 1.0725472 -s 0 -d 1 -p tcp -e 1540 -c 0 -i 20 -a 0 -x {0.0 2.0 13 ------- null}
- -t 1.0725472 -s 0 -d 1 -p tcp -e 1540 -c 0 -i 20 -a 0 -x {0.0 2.0 13 ------- null}
h -t 1.0725472 -s 0 -d 1 -p tcp -e 1540 -c 0 -i 20 -a 0 -x {0.0 2.0 -1 ------- null}
+ -t 1.0725472 -s 0 -d 1 -p tcp -e 1540 -c 0 -i 21 -a 0 -x {0.0 2.0 14 ------- null}
- -t 1.0726704 -s 0 -d 1 -p tcp -e 1540 -c 0 -i 21 -a 0 -x {0.0 2.0 14 ------- null}
h -t 1.0726704 -s 0 -d 1 -p tcp -e 1540 -c 0 -i 21 -a 0 -x {0.0 2.0 -1 ------- null}
r -t 1.0789744 -s 0 -d 1 -p tcp -e 1540 -c 0 -i 14 -a 0 -x {0.0 2.0 7 ------- null}
+ -t 1.0789744 -s 1 -d 2 -p tcp -e 1540 -c 0 -i 14 -a 0 -x {0.0 2.0 7 ------- null}
- -t 1.0789744 -s 1 -d 2 -p tcp -e 1540 -c 0 -i 14 -a 0 -x {0.0 2.0 7 ------- null}
h -t 1.0789744 -s 1 -d 2 -p tcp -e 1540 -c 0 -i 14 -a 0 -x {0.0 2.0 -1 ------- null}
r -t 1.0790976 -s 0 -d 1 -p tcp -e 1540 -c 0 -i 15 -a 0 -x {0.0 2.0 8 ------- null}
+ -t 1.0790976 -s 1 -d 2 -p tcp -e 1540 -c 0 -i 15 -a 0 -x {0.0 2.0 8 ------- null}
r -t 1.0802064 -s 0 -d 1 -p tcp -e 1540 -c 0 -i 16 -a 0 -x {0.0 2.0 9 ------- null}
+ -t 1.0802064 -s 1 -d 2 -p tcp -e 1540 -c 0 -i 16 -a 0 -x {0.0 2.0 9 ------- null}
- -t 1.0802064 -s 1 -d 2 -p tcp -e 1540 -c 0 -i 15 -a 0 -x {0.0 2.0 8 ------- null}
h -t 1.0802064 -s 1 -d 2 -p tcp -e 1540 -c 0 -i 15 -a 0 -x {0.0 2.0 -1 ------- null}
r -t 1.0803296 -s 0 -d 1 -p tcp -e 1540 -c 0 -i 17 -a 0 -x {0.0 2.0 10 ------- null}
+ -t 1.0803296 -s 1 -d 2 -p tcp -e 1540 -c 0 -i 17 -a 0 -x {0.0 2.0 10 ------- null}
r -t 1.0812064 -s 1 -d 2 -p tcp -e 1540 -c 0 -i 14 -a 0 -x {0.0 2.0 7 ------- null}
+ -t 1.0812064 -s 2 -d 1 -p ack -e 40 -c 0 -i 22 -a 0 -x {2.0 0.0 7 ------- null}
- -t 1.0812064 -s 2 -d 1 -p ack -e 40 -c 0 -i 22 -a 0 -x {2.0 0.0 7 ------- null}
h -t 1.0812064 -s 2 -d 1 -p ack -e 40 -c 0 -i 22 -a 0 -x {2.0 0.0 -1 ------- null}
r -t 1.0814384 -s 0 -d 1 -p tcp -e 1540 -c 0 -i 18 -a 0 -x {0.0 2.0 11 ------- null}
+ -t 1.0814384 -s 1 -d 2 -p tcp -e 1540 -c 0 -i 18 -a 0 -x {0.0 2.0 11 ------- null}
- -t 1.0814384 -s 1 -d 2 -p tcp -e 1540 -c 0 -i 16 -a 0 -x {0.0 2.0 9 ------- null}
h -t 1.0814384 -s 1 -d 2 -p tcp -e 1540 -c 0 -i 16 -a 0 -x {0.0 2.0 -1 ------- null}
r -t 1.0815616 -s 0 -d 1 -p tcp -e 1540 -c 0 -i 19 -a 0 -x {0.0 2.0 12 ------- null}
+ -t 1.0815616 -s 1 -d 2 -p tcp -e 1540 -c 0 -i 19 -a 0 -x {0.0 2.0 12 ------- null}
r -t 1.0822384 -s 2 -d 1 -p ack -e 40 -c 0 -i 22 -a 0 -x {2.0 0.0 7 ------- null}
+ -t 1.0822384 -s 1 -d 0 -p ack -e 40 -c 0 -i 22 -a 0 -x {2.0 0.0 7 ------- null}
- -t 1.0822384 -s 1 -d 0 -p ack -e 40 -c 0 -i 22 -a 0 -x {2.0 0.0 7 ------- null}
h -t 1.0822384 -s 1 -d 0 -p ack -e 40 -c 0 -i 22 -a 0 -x {2.0 0.0 -1 ------- null}
r -t 1.0824384 -s 1 -d 2 -p tcp -e 1540 -c 0 -i 15 -a 0 -x {0.0 2.0 8 ------- null}
+ -t 1.0824384 -s 2 -d 1 -p ack -e 40 -c 0 -i 23 -a 0 -x {2.0 0.0 8 ------- null}
- -t 1.0824384 -s 2 -d 1 -p ack -e 40 -c 0 -i 23 -a 0 -x {2.0 0.0 8 ------- null}
h -t 1.0824384 -s 2 -d 1 -p ack -e 40 -c 0 -i 23 -a 0 -x {2.0 0.0 -1 ------- null}
r -t 1.0826704 -s 0 -d 1 -p tcp -e 1540 -c 0 -i 20 -a 0 -x {0.0 2.0 13 ------- null}
+ -t 1.0826704 -s 1 -d 2 -p tcp -e 1540 -c 0 -i 20 -a 0 -x {0.0 2.0 13 ------- null}
- -t 1.0826704 -s 1 -d 2 -p tcp -e 1540 -c 0 -i 17 -a 0 -x {0.0 2.0 10 ------- null}
h -t 1.0826704 -s 1 -d 2 -p tcp -e 1540 -c 0 -i 17 -a 0 -x {0.0 2.0 -1 ------- null}
r -t 1.0827936 -s 0 -d 1 -p tcp -e 1540 -c 0 -i 21 -a 0 -x {0.0 2.0 14 ------- null}
+ -t 1.0827936 -s 1 -d 2 -p tcp -e 1540 -c 0 -i 21 -a 0 -x {0.0 2.0 14 ------- null}
r -t 1.0834704 -s 2 -d 1 -p ack -e 40 -c 0 -i 23 -a 0 -x {2.0 0.0 8 ------- null}
+ -t 1.0834704 -s 1 -d 0 -p ack -e 40 -c 0 -i 23 -a 0 -x {2.0 0.0 8 ------- null}
- -t 1.0834704 -s 1 -d 0 -p ack -e 40 -c 0 -i 23 -a 0 -x {2.0 0.0 8 ------- null}
h -t 1.0834704 -s 1 -d 0 -p ack -e 40 -c 0 -i 23 -a 0 -x {2.0 0.0 -1 ------- null}
r -t 1.0836704 -s 1 -d 2 -p tcp -e 1540 -c 0 -i 16 -a 0 -x {0.0 2.0 9 ------- null}
+ -t 1.0836704 -s 2 -d 1 -p ack -e 40 -c 0 -i 24 -a 0 -x {2.0 0.0 9 ------- null}
- -t 1.0836704 -s 2 -d 1 -p ack -e 40 -c 0 -i 24 -a 0 -x {2.0 0.0 9 ------- null}
h -t 1.0836704 -s 2 -d 1 -p ack -e 40 -c 0 -i 24 -a 0 -x {2.0 0.0 -1 ------- null}
- -t 1.0839024 -s 1 -d 2 -p tcp -e 1540 -c 0 -i 18 -a 0 -x {0.0 2.0 11 ------- null}
h -t 1.0839024 -s 1 -d 2 -p tcp -e 1540 -c 0 -i 18 -a 0 -x {0.0 2.0 -1 ------- null}
r -t 1.0847024 -s 2 -d 1 -p ack -e 40 -c 0 -i 24 -a 0 -x {2.0 0.0 9 ------- null}
+ -t 1.0847024 -s 1 -d 0 -p ack -e 40 -c 0 -i 24 -a 0 -x {2.0 0.0 9 ------- null}
- -t 1.0847024 -s 1 -d 0 -p ack -e 40 -c 0 -i 24 -a 0 -x {2.0 0.0 9 ------- null}
h -t 1.0847024 -s 1 -d 0 -p ack -e 40 -c 0 -i 24 -a 0 -x {2.0 0.0 -1 ------- null}
r -t 1.0849024 -s 1 -d 2 -p tcp -e 1540 -c 0 -i 17 -a 0 -x {0.0 2.0 10 ------- null}
+ -t 1.0849024 -s 2 -d 1 -p ack -e 40 -c 0 -i 25 -a 0 -x {2.0 0.0 10 ------- null}
- -t 1.0849024 -s 2 -d 1 -p ack -e 40 -c 0 -i 25 -a 0 -x {2.0 0.0 10 ------- null}
h -t 1.0849024 -s 2 -d 1 -p ack -e 40 -c 0 -i 25 -a 0 -x {2.0 0.0 -1 ------- null}
- -t 1.0851344 -s 1 -d 2 -p tcp -e 1540 -c 0 -i 19 -a 0 -x {0.0 2.0 12 ------- null}
h -t 1.0851344 -s 1 -d 2 -p tcp -e 1540 -c 0 -i 19 -a 0 -x {0.0 2.0 -1 ------- null}
r -t 1.0859344 -s 2 -d 1 -p ack -e 40 -c 0 -i 25 -a 0 -x {2.0 0.0 10 ------- null}
+ -t 1.0859344 -s 1 -d 0 -p ack -e 40 -c 0 -i 25 -a 0 -x {2.0 0.0 10 ------- null}
- -t 1.0859344 -s 1 -d 0 -p ack -e 40 -c 0 -i 25 -a 0 -x {2.0 0.0 10 ------- null}
h -t 1.0859344 -s 1 -d 0 -p ack -e 40 -c 0 -i 25 -a 0 -x {2.0 0.0 -1 ------- null}
r -t 1.0861344 -s 1 -d 2 -p tcp -e 1540 -c 0 -i 18 -a 0 -x {0.0 2.0 11 ------- null}
+ -t 1.0861344 -s 2 -d 1 -p ack -e 40 -c 0 -i 26 -a 0 -x {2.0 0.0 11 ------- null}
- -t 1.0861344 -s 2 -d 1 -p ack -e 40 -c 0 -i 26 -a 0 -x {2.0 0.0 11 ------- null}
h -t 1.0861344 -s 2 -d 1 -p ack -e 40 -c 0 -i 26 -a 0 -x {2.0 0.0 -1 ------- null}
- -t 1.0863664 -s 1 -d 2 -p tcp -e 1540 -c 0 -i 20 -a 0 -x {0.0 2.0 13 ------- null}
h -t 1.0863664 -s 1 -d 2 -p tcp -e 1540 -c 0 -i 20 -a 0 -x {0.0 2.0 -1 ------- null}
r -t 1.0871664 -s 2 -d 1 -p ack -e 40 -c 0 -i 26 -a 0 -x {2.0 0.0 11 ------- null}
+ -t 1.0871664 -s 1 -d 0 -p ack -e 40 -c 0 -i 26 -a 0 -x {2.0 0.0 11 ------- null}
- -t 1.0871664 -s 1 -d 0 -p ack -e 40 -c 0 -i 26 -a 0 -x {2.0 0.0 11 ------- null}
h -t 1.0871664 -s 1 -d 0 -p ack -e 40 -c 0 -i 26 -a 0 -x {2.0 0.0 -1 ------- null}
r -t 1.0873664 -s 1 -d 2 -p tcp -e 1540 -c 0 -i 19 -a 0 -x {0.0 2.0 12 ------- null}
+ -t 1.0873664 -s 2 -d 1 -p ack -e 40 -c 0 -i 27 -a 0 -x {2.0 0.0 12 ------- null}
- -t 1.0873664 -s 2 -d 1 -p ack -e 40 -c 0 -i 27 -a 0 -x {2.0 0.0 12 ------- null}
h -t 1.0873664 -s 2 -d 1 -p ack -e 40 -c 0 -i 27 -a 0 -x {2.0 0.0 -1 ------- null}
- -t 1.0875984 -s 1 -d 2 -p tcp -e 1540 -c 0 -i 21 -a 0 -x {0.0 2.0 14 ------- null}
h -t 1.0875984 -s 1 -d 2 -p tcp -e 1540 -c 0 -i 21 -a 0 -x {0.0 2.0 -1 ------- null}
r -t 1.0883984 -s 2 -d 1 -p ack -e 40 -c 0 -i 27 -a 0 -x {2.0 0.0 12 ------- null}
+ -t 1.0883984 -s 1 -d 0 -p ack -e 40 -c 0 -i 27 -a 0 -x {2.0 0.0 12 ------- null}
- -t 1.0883984 -s 1 -d 0 -p ack -e 40 -c 0 -i 27 -a 0 -x {2.0 0.0 12 ------- null}
h -t 1.0883984 -s 1 -d 0 -p ack -e 40 -c 0 -i 27 -a 0 -x {2.0 0.0 -1 ------- null}
r -t 1.0885984 -s 1 -d 2 -p tcp -e 1540 -c 0 -i 20 -a 0 -x {0.0 2.0 13 ------- null}
+ -t 1.0885984 -s 2 -d 1 -p ack -e 40 -c 0 -i 28 -a 0 -x {2.0 0.0 13 ------- null}
- -t 1.0885984 -s 2 -d 1 -p ack -e 40 -c 0 -i 28 -a 0 -x {2.0 0.0 13 ------- null}
h -t 1.0885984 -s 2 -d 1 -p ack -e 40 -c 0 -i 28 -a 0 -x {2.0 0.0 -1 ------- null}
r -t 1.0896304 -s 2 -d 1 -p ack -e 40 -c 0 -i 28 -a 0 -x {2.0 0.0 13 ------- null}
+ -t 1.0896304 -s 1 -d 0 -p ack -e 40 -c 0 -i 28 -a 0 -x {2.0 0.0 13 ------- null}
- -t 1.0896304 -s 1 -d 0 -p ack -e 40 -c 0 -i 28 -a 0 -x {2.0 0.0 13 ------- null}
h -t 1.0896304 -s 1 -d 0 -p ack -e 40 -c 0 -i 28 -a 0 -x {2.0 0.0 -1 ------- null}
r -t 1.0898304 -s 1 -d 2 -p tcp -e 1540 -c 0 -i 21 -a 0 -x {0.0 2.0 14 ------- null}
+ -t 1.0898304 -s 2 -d 1 -p ack -e 40 -c 0 -i 29 -a 0 -x {2.0 0.0 14 ------- null}
- -t 1.0898304 -s 2 -d 1 -p ack -e 40 -c 0 -i 29 -a 0 -x {2.0 0.0 14 ------- null}
h -t 1.0898304 -s 2 -d 1 -p ack -e 40 -c 0 -i 29 -a 0 -x {2.0 0.0 -1 ------- null}
r -t 1.0908624 -s 2 -d 1 -p ack -e 40 -c 0 -i 29 -a 0 -x {2.0 0.0 14 ------- null}
+ -t 1.0908624 -s 1 -d 0 -p ack -e 40 -c 0 -i 29 -a 0 -x {2.0 0.0 14 ------- null}
- -t 1.0908624 -s 1 -d 0 -p ack -e 40 -c 0 -i 29 -a 0 -x {2.0 0.0 14 ------- null}
h -t 1.0908624 -s 1 -d 0 -p ack -e 40 -c 0 -i 29 -a 0 -x {2.0 0.0 -1 ------- null}
r -t 1.0922416 -s 1 -d 0 -p ack -e 40 -c 0 -i 22 -a 0 -x {2.0 0.0 7 ------- null}
+ -t 1.0922416 -s 0 -d 1 -p tcp -e 1540 -c 0 -i 30 -a 0 -x {0.0 2.0 15 ------- null}
- -t 1.0922416 -s 0 -d 1 -p tcp -e 1540 -c 0 -i 30 -a 0 -x {0.0 2.0 15 ------- null}
h -t 1.0922416 -s 0 -d 1 -p tcp -e 1540 -c 0 -i 30 -a 0 -x {0.0 2.0 -1 ------- null}
+ -t 1.0922416 -s 0 -d 1 -p tcp -e 1540 -c 0 -i 31 -a 0 -x {0.0 2.0 16 ------- null}
- -t 1.0923648 -s 0 -d 1 -p tcp -e 1540 -c 0 -i 31 -a 0 -x {0.0 2.0 16 ------- null}
h -t 1.0923648 -s 0 -d 1 -p tcp -e 1540 -c 0 -i 31 -a 0 -x {0.0 2.0 -1 ------- null}
r -t 1.0934736 -s 1 -d 0 -p ack -e 40 -c 0 -i 23 -a 0 -x {2.0 0.0 8 ------- null}
+ -t 1.0934736 -s 0 -d 1 -p tcp -e 1540 -c 0 -i 32 -a 0 -x {0.0 2.0 17 ------- null}
- -t 1.0934736 -s 0 -d 1 -p tcp -e 1540 -c 0 -i 32 -a 0 -x {0.0 2.0 17 ------- null}
h -t 1.0934736 -s 0 -d 1 -p tcp -e 1540 -c 0 -i 32 -a 0 -x {0.0 2.0 -1 ------- null}
+ -t 1.0934736 -s 0 -d 1 -p tcp -e 1540 -c 0 -i 33 -a 0 -x {0.0 2.0 18 ------- null}
- -t 1.0935968 -s 0 -d 1 -p tcp -e 1540 -c 0 -i 33 -a 0 -x {0.0 2.0 18 ------- null}
h -t 1.0935968 -s 0 -d 1 -p tcp -e 1540 -c 0 -i 33 -a 0 -x {0.0 2.0 -1 ------- null}
r -t 1.0947056 -s 1 -d 0 -p ack -e 40 -c 0 -i 24 -a 0 -x {2.0 0.0 9 ------- null}
+ -t 1.0947056 -s 0 -d 1 -p tcp -e 1540 -c 0 -i 34 -a 0 -x {0.0 2.0 19 ------- null}
- -t 1.0947056 -s 0 -d 1 -p tcp -e 1540 -c 0 -i 34 -a 0 -x {0.0 2.0 19 ------- null}
h -t 1.0947056 -s 0 -d 1 -p tcp -e 1540 -c 0 -i 34 -a 0 -x {0.0 2.0 -1 ------- null}
+ -t 1.0947056 -s 0 -d 1 -p tcp -e 1540 -c 0 -i 35 -a 0 -x {0.0 2.0 20 ------- null}
- -t 1.0948288 -s 0 -d 1 -p tcp -e 1540 -c 0 -i 35 -a 0 -x {0.0 2.0 20 ------- null}
h -t 1.0948288 -s 0 -d 1 -p tcp -e 1540 -c 0 -i 35 -a 0 -x {0.0 2.0 -1 ------- null}
r -t 1.0959376 -s 1 -d 0 -p ack -e 40 -c 0 -i 25 -a 0 -x {2.0 0.0 10 ------- null}
+ -t 1.0959376 -s 0 -d 1 -p tcp -e 1540 -c 0 -i 36 -a 0 -x {0.0 2.0 21 ------- null}
- -t 1.0959376 -s 0 -d 1 -p tcp -e 1540 -c 0 -i 36 -a 0 -x {0.0 2.0 21 ------- null}
h -t 1.0959376 -s 0 -d 1 -p tcp -e 1540 -c 0 -i 36 -a 0 -x {0.0 2.0 -1 ------- null}
+ -t 1.0959376 -s 0 -d 1 -p tcp -e 1540 -c 0 -i 37 -a 0 -x {0.0 2.0 22 ------- null}
- -t 1.0960608 -s 0 -d 1 -p tcp -e 1540 -c 0 -i 37 -a 0 -x {0.0 2.0 22 ------- null}
h -t 1.0960608 -s 0 -d 1 -p tcp -e 1540 -c 0 -i 37 -a 0 -x {0.0 2.0 -1 ------- null}
r -t 1.0971696 -s 1 -d 0 -p ack -e 40 -c 0 -i 26 -a 0 -x {2.0 0.0 11 ------- null}
+ -t 1.0971696 -s 0 -d 1 -p tcp -e 1540 -c 0 -i 38 -a 0 -x {0.0 2.0 23 ------- null}
- -t 1.0971696 -s 0 -d 1 -p tcp -e 1540 -c 0 -i 38 -a 0 -x {0.0 2.0 23 ------- null}
h -t 1.0971696 -s 0 -d 1 -p tcp -e 1540 -c 0 -i 38 -a 0 -x {0.0 2.0 -1 ------- null}
+ -t 1.0971696 -s 0 -d 1 -p tcp -e 1540 -c 0 -i 39 -a 0 -x {0.0 2.0 24 ------- null}
- -t 1.0972928 -s 0 -d 1 -p tcp -e 1540 -c 0 -i 39 -a 0 -x {0.0 2.0 24 ------- null}
h -t 1.0972928 -s 0 -d 1 -p tcp -e 1540 -c 0 -i 39 -a 0 -x {0.0 2.0 -1 ------- null}
r -t 1.0984016 -s 1 -d 0 -p ack -e 40 -c 0 -i 27 -a 0 -x {2.0 0.0 12 ------- null}
+ -t 1.0984016 -s 0 -d 1 -p tcp -e 1540 -c 0 -i 40 -a 0 -x {0.0 2.0 25 ------- null}
- -t 1.0984016 -s 0 -d 1 -p tcp -e 1540 -c 0 -i 40 -a 0 -x {0.0 2.0 25 ------- null}
h -t 1.0984016 -s 0 -d 1 -p tcp -e 1540 -c 0 -i 40 -a 0 -x {0.0 2.0 -1 ------- null}
+ -t 1.0984016 -s 0 -d 1 -p tcp -e 1540 -c 0 -i 41 -a 0 -x {0.0 2.0 26 ------- null}
- -t 1.0985248 -s 0 -d 1 -p tcp -e 1540 -c 0 -i 41 -a 0 -x {0.0 2.0 26 ------- null}
h -t 1.0985248 -s 0 -d 1 -p tcp -e 1540 -c 0 -i 41 -a 0 -x {0.0 2.0 -1 ------- null}
r -t 1.0996336 -s 1 -d 0 -p ack -e 40 -c 0 -i 28 -a 0 -x {2.0 0.0 13 ------- null}
+ -t 1.0996336 -s 0 -d 1 -p tcp -e 1540 -c 0 -i 42 -a 0 -x {0.0 2.0 27 ------- null}
- -t 1.0996336 -s 0 -d 1 -p tcp -e 1540 -c 0 -i 42 -a 0 -x {0.0 2.0 27 ------- null}
h -t 1.0996336 -s 0 -d 1 -p tcp -e 1540 -c 0 -i 42 -a 0 -x {0.0 2.0 -1 ------- null}
+ -t 1.0996336 -s 0 -d 1 -p tcp -e 1540 -c 0 -i 43 -a 0 -x {0.0 2.0 28 ------- null}
- -t 1.0997568 -s 0 -d 1 -p tcp -e 1540 -c 0 -i 43 -a 0 -x {0.0 2.0 28 ------- null}
h -t 1.0997568 -s 0 -d 1 -p tcp -e 1540 -c 0 -i 43 -a 0 -x {0.0 2.0 -1 ------- null}
r -t 1.1008656 -s 1 -d 0 -p ack -e 40 -c 0 -i 29 -a 0 -x {2.0 0.0 14 ------- null}
+ -t 1.1008656 -s 0 -d 1 -p tcp -e 1540 -c 0 -i 44 -a 0 -x {0.0 2.0 29 ------- null}
- -t 1.1008656 -s 0 -d 1 -p tcp -e 1540 -c 0 -i 44 -a 0 -x {0.0 2.0 29 ------- null}
h -t 1.1008656 -s 0 -d 1 -p tcp -e 1540 -c 0 -i 44 -a 0 -x {0.0 2.0 -1 ------- null}
+ -t 1.1008656 -s 0 -d 1 -p tcp -e 1540 -c 0 -i 45 -a 0 -x {0.0 2.0 30 ------- null}
- -t 1.1009888 -s 0 -d 1 -p tcp -e 1540 -c 0 -i 45 -a 0 -x {0.0 2.0 30 ------- null}
h -t 1.1009888 -s 0 -d 1 -p tcp -e 1540 -c 0 -i 45 -a 0 -x {0.0 2.0 -1 ------- null}
r -t 1.1023648 -s 0 -d 1 -p tcp -e 1540 -c 0 -i 30 -a 0 -x {0.0 2.0 15 ------- null}
+ -t 1.1023648 -s 1 -d 2 -p tcp -e 1540 -c 0 -i 30 -a 0 -x {0.0 2.0 15 ------- null}
- -t 1.1023648 -s 1 -d 2 -p tcp -e 1540 -c 0 -i 30 -a 0 -x {0.0 2.0 15 ------- null}
h -t 1.1023648 -s 1 -d 2 -p tcp -e 1540 -c 0 -i 30 -a 0 -x {0.0 2.0 -1 ------- null}
r -t 1.102488 -s 0 -d 1 -p tcp -e 1540 -c 0 -i 31 -a 0 -x {0.0 2.0 16 ------- null}
+ -t 1.102488 -s 1 -d 2 -p tcp -e 1540 -c 0 -i 31 -a 0 -x {0.0 2.0 16 ------- null}
r -t 1.1035968 -s 0 -d 1 -p tcp -e 1540 -c 0 -i 32 -a 0 -x {0.0 2.0 17 ------- null}
+ -t 1.1035968 -s 1 -d 2 -p tcp -e 1540 -c 0 -i 32 -a 0 -x {0.0 2.0 17 ------- null}
- -t 1.1035968 -s 1 -d 2 -p tcp -e 1540 -c 0 -i 31 -a 0 -x {0.0 2.0 16 ------- null}
h -t 1.1035968 -s 1 -d 2 -p tcp -e 1540 -c 0 -i 31 -a 0 -x {0.0 2.0 -1 ------- null}
r -t 1.10372 -s 0 -d 1 -p tcp -e 1540 -c 0 -i 33 -a 0 -x {0.0 2.0 18 ------- null}
+ -t 1.10372 -s 1 -d 2 -p tcp -e 1540 -c 0 -i 33 -a 0 -x {0.0 2.0 18 ------- null}
r -t 1.1045968 -s 1 -d 2 -p tcp -e 1540 -c 0 -i 30 -a 0 -x {0.0 2.0 15 ------- null}
+ -t 1.1045968 -s 2 -d 1 -p ack -e 40 -c 0 -i 46 -a 0 -x {2.0 0.0 15 ------- null}
- -t 1.1045968 -s 2 -d 1 -p ack -e 40 -c 0 -i 46 -a 0 -x {2.0 0.0 15 ------- null}
h -t 1.1045968 -s 2 -d 1 -p ack -e 40 -c 0 -i 46 -a 0 -x {2.0 0.0 -1 ------- null}
r -t 1.1048288 -s 0 -d 1 -p tcp -e 1540 -c 0 -i 34 -a 0 -x {0.0 2.0 19 ------- null}
+ -t 1.1048288 -s 1 -d 2 -p tcp -e 1540 -c 0 -i 34 -a 0 -x {0.0 2.0 19 ------- null}
- -t 1.1048288 -s 1 -d 2 -p tcp -e 1540 -c 0 -i 32 -a 0 -x {0.0 2.0 17 ------- null}
h -t 1.1048288 -s 1 -d 2 -p tcp -e 1540 -c 0 -i 32 -a 0 -x {0.0 2.0 -1 ------- null}
r -t 1.104952 -s 0 -d 1 -p tcp -e 1540 -c 0 -i 35 -a 0 -x {0.0 2.0 20 ------- null}
+ -t 1.104952 -s 1 -d 2 -p tcp -e 1540 -c 0 -i 35 -a 0 -x {0.0 2.0 20 ------- null}
r -t 1.1056288 -s 2 -d 1 -p ack -e 40 -c 0 -i 46 -a 0 -x {2.0 0.0 15 ------- null}
+ -t 1.1056288 -s 1 -d 0 -p ack -e 40 -c 0 -i 46 -a 0 -x {2.0 0.0 15 ------- null}
- -t 1.1056288 -s 1 -d 0 -p ack -e 40 -c 0 -i 46 -a 0 -x {2.0 0.0 15 ------- null}
h -t 1.1056288 -s 1 -d 0 -p ack -e 40 -c 0 -i 46 -a 0 -x {2.0 0.0 -1 ------- null}
r -t 1.1058288 -s 1 -d 2 -p tcp -e 1540 -c 0 -i 31 -a 0 -x {0.0 2.0 16 ------- null}
+ -t 1.1058288 -s 2 -d 1 -p ack -e 40 -c 0 -i 47 -a 0 -x {2.0 0.0 16 ------- null}
- -t 1.1058288 -s 2 -d 1 -p ack -e 40 -c 0 -i 47 -a 0 -x {2.0 0.0 16 ------- null}
h -t 1.1058288 -s 2 -d 1 -p ack -e 40 -c 0 -i 47 -a 0 -x {2.0 0.0 -1 ------- null}
r -t 1.1060608 -s 0 -d 1 -p tcp -e 1540 -c 0 -i 36 -a 0 -x {0.0 2.0 21 ------- null}
+ -t 1.1060608 -s 1 -d 2 -p tcp -e 1540 -c 0 -i 36 -a 0 -x {0.0 2.0 21 ------- null}
- -t 1.1060608 -s 1 -d 2 -p tcp -e 1540 -c 0 -i 33 -a 0 -x {0.0 2.0 18 ------- null}
h -t 1.1060608 -s 1 -d 2 -p tcp -e 1540 -c 0 -i 33 -a 0 -x {0.0 2.0 -1 ------- null}
r -t 1.106184 -s 0 -d 1 -p tcp -e 1540 -c 0 -i 37 -a 0 -x {0.0 2.0 22 ------- null}
+ -t 1.106184 -s 1 -d 2 -p tcp -e 1540 -c 0 -i 37 -a 0 -x {0.0 2.0 22 ------- null}
r -t 1.1068608 -s 2 -d 1 -p ack -e 40 -c 0 -i 47 -a 0 -x {2.0 0.0 16 ------- null}
+ -t 1.1068608 -s 1 -d 0 -p ack -e 40 -c 0 -i 47 -a 0 -x {2.0 0.0 16 ------- null}
- -t 1.1068608 -s 1 -d 0 -p ack -e 40 -c 0 -i 47 -a 0 -x {2.0 0.0 16 ------- null}
h -t 1.1068608 -s 1 -d 0 -p ack -e 40 -c 0 -i 47 -a 0 -x {2.0 0.0 -1 ------- null}
r -t 1.1070608 -s 1 -d 2 -p tcp -e 1540 -c 0 -i 32 -a 0 -x {0.0 2.0 17 ------- null}
+ -t 1.1070608 -s 2 -d 1 -p ack -e 40 -c 0 -i 48 -a 0 -x {2.0 0.0 17 ------- null}
- -t 1.1070608 -s 2 -d 1 -p ack -e 40 -c 0 -i 48 -a 0 -x {2.0 0.0 17 ------- null}
h -t 1.1070608 -s 2 -d 1 -p ack -e 40 -c 0 -i 48 -a 0 -x {2.0 0.0 -1 ------- null}
r -t 1.1072928 -s 0 -d 1 -p tcp -e 1540 -c 0 -i 38 -a 0 -x {0.0 2.0 23 ------- null}
+ -t 1.1072928 -s 1 -d 2 -p tcp -e 1540 -c 0 -i 38 -a 0 -x {0.0 2.0 23 ------- null}
d -t 1.1072928 -s 1 -d 2 -p tcp -e 1540 -c 0 -i 38 -a 0 -x {0.0 2.0 23 ------- null}
- -t 1.1072928 -s 1 -d 2 -p tcp -e 1540 -c 0 -i 34 -a 0 -x {0.0 2.0 19 ------- null}
h -t 1.1072928 -s 1 -d 2 -p tcp -e 1540 -c 0 -i 34 -a 0 -x {0.0 2.0 -1 ------- null}
r -t 1.107416 -s 0 -d 1 -p tcp -e 1540 -c 0 -i 39 -a 0 -x {0.0 2.0 24 ------- null}
+ -t 1.107416 -s 1 -d 2 -p tcp -e 1540 -c 0 -i 39 -a 0 -x {0.0 2.0 24 ------- null}
r -t 1.1080928 -s 2 -d 1 -p ack -e 40 -c 0 -i 48 -a 0 -x {2.0 0.0 17 ------- null}
+ -t 1.1080928 -s 1 -d 0 -p ack -e 40 -c 0 -i 48 -a 0 -x {2.0 0.0 17 ------- null}
- -t 1.1080928 -s 1 -d 0 -p ack -e 40 -c 0 -i 48 -a 0 -x {2.0 0.0 17 ------- null}
h -t 1.1080928 -s 1 -d 0 -p ack -e 40 -c 0 -i 48 -a 0 -x {2.0 0.0 -1 ------- null}
r -t 1.1082928 -s 1 -d 2 -p tcp -e 1540 -c 0 -i 33 -a 0 -x {0.0 2.0 18 ------- null}
+ -t 1.1082928 -s 2 -d 1 -p ack -e 40 -c 0 -i 49 -a 0 -x {2.0 0.0 18 ------- null}
- -t 1.1082928 -s 2 -d 1 -p ack -e 40 -c 0 -i 49 -a 0 -x {2.0 0.0 18 ------- null}
h -t 1.1082928 -s 2 -d 1 -p ack -e 40 -c 0 -i 49 -a 0 -x {2.0 0.0 -1 ------- null}
r -t 1.1085248 -s 0 -d 1 -p tcp -e 1540 -c 0 -i 40 -a 0 -x {0.0 2.0 25 ------- null}
+ -t 1.1085248 -s 1 -d 2 -p tcp -e 1540 -c 0 -i 40 -a 0 -x {0.0 2.0 25 ------- null}
d -t 1.1085248 -s 1 -d 2 -p tcp -e 1540 -c 0 -i 40 -a 0 -x {0.0 2.0 25 ------- null}
- -t 1.1085248 -s 1 -d 2 -p tcp -e 1540 -c 0 -i 35 -a 0 -x {0.0 2.0 20 ------- null}
h -t 1.1085248 -s 1 -d 2 -p tcp -e 1540 -c 0 -i 35 -a 0 -x {0.0 2.0 -1 ------- null}
r -t 1.108648 -s 0 -d 1 -p tcp -e 1540 -c 0 -i 41 -a 0 -x {0.0 2.0 26 ------- null}
+ -t 1.108648 -s 1 -d 2 -p tcp -e 1540 -c 0 -i 41 -a 0 -x {0.0 2.0 26 ------- null}
r -t 1.1093248 -s 2 -d 1 -p ack -e 40 -c 0 -i 49 -a 0 -x {2.0 0.0 18 ------- null}