+ 1 0 1 tcp 40 ------- 0 0.0 2.0 0 0
- 1 0 1 tcp 40 ------- 0 0.0 2.0 0 0
r 1.010003 0 1 tcp 40 ------- 0 0.0 2.0 0 0
+ 1.010003 1 2 tcp 40 ------- 0 0.0 2.0 0 0
- 1.010003 1 2 tcp 40 ------- 0 0.0 2.0 0 0
r 1.011035 1 2 tcp 40 ------- 0 0.0 2.0 0 0
+ 1.011035 2 1 ack 40 ------- 0 2.0 0.0 0 1
- 1.011035 2 1 ack 40 ------- 0 2.0 0.0 0 1
r 1.012067 2 1 ack 40 ------- 0 2.0 0.0 0 1
+ 1.012067 1 0 ack 40 ------- 0 2.0 0.0 0 1
- 1.012067 1 0 ack 40 ------- 0 2.0 0.0 0 1
r 1.02207 1 0 ack 40 ------- 0 2.0 0.0 0 1
+ 1.02207 0 1 tcp 1540 ------- 0 0.0 2.0 1 2
- 1.02207 0 1 tcp 1540 ------- 0 0.0 2.0 1 2
+ 1.02207 0 1 tcp 1540 ------- 0 0.0 2.0 2 3
- 1.022194 0 1 tcp 1540 ------- 0 0.0 2.0 2 3
r 1.032194 0 1 tcp 1540 ------- 0 0.0 2.0 1 2
+ 1.032194 1 2 tcp 1540 ------- 0 0.0 2.0 1 2
- 1.032194 1 2 tcp 1540 ------- 0 0.0 2.0 1 2
r 1.032317 0 1 tcp 1540 ------- 0 0.0 2.0 2 3
+ 1.032317 1 2 tcp 1540 ------- 0 0.0 2.0 2 3
- 1.033426 1 2 tcp 1540 ------- 0 0.0 2.0 2 3
r 1.034426 1 2 tcp 1540 ------- 0 0.0 2.0 1 2
+ 1.034426 2 1 ack 40 ------- 0 2.0 0.0 1 4
- 1.034426 2 1 ack 40 ------- 0 2.0 0.0 1 4
r 1.035458 2 1 ack 40 ------- 0 2.0 0.0 1 4
+ 1.035458 1 0 ack 40 ------- 0 2.0 0.0 1 4
- 1.035458 1 0 ack 40 ------- 0 2.0 0.0 1 4
r 1.035658 1 2 tcp 1540 ------- 0 0.0 2.0 2 3
+ 1.035658 2 1 ack 40 ------- 0 2.0 0.0 2 5
- 1.035658 2 1 ack 40 ------- 0 2.0 0.0 2 5
r 1.03669 2 1 ack 40 ------- 0 2.0 0.0 2 5
+ 1.03669 1 0 ack 40 ------- 0 2.0 0.0 2 5
- 1.03669 1 0 ack 40 ------- 0 2.0 0.0 2 5
r 1.045461 1 0 ack 40 ------- 0 2.0 0.0 1 4
+ 1.045461 0 1 tcp 1540 ------- 0 0.0 2.0 3 6
- 1.045461 0 1 tcp 1540 ------- 0 0.0 2.0 3 6
+ 1.045461 0 1 tcp 1540 ------- 0 0.0 2.0 4 7
- 1.045584 0 1 tcp 1540 ------- 0 0.0 2.0 4 7
r 1.046693 1 0 ack 40 ------- 0 2.0 0.0 2 5
+ 1.046693 0 1 tcp 1540 ------- 0 0.0 2.0 5 8
- 1.046693 0 1 tcp 1540 ------- 0 0.0 2.0 5 8
+ 1.046693 0 1 tcp 1540 ------- 0 0.0 2.0 6 9
- 1.046816 0 1 tcp 1540 ------- 0 0.0 2.0 6 9
r 1.055584 0 1 tcp 1540 ------- 0 0.0 2.0 3 6
+ 1.055584 1 2 tcp 1540 ------- 0 0.0 2.0 3 6
- 1.055584 1 2 tcp 1540 ------- 0 0.0 2.0 3 6
r 1.055707 0 1 tcp 1540 ------- 0 0.0 2.0 4 7
+ 1.055707 1 2 tcp 1540 ------- 0 0.0 2.0 4 7
r 1.056816 0 1 tcp 1540 ------- 0 0.0 2.0 5 8
+ 1.056816 1 2 tcp 1540 ------- 0 0.0 2.0 5 8
- 1.056816 1 2 tcp 1540 ------- 0 0.0 2.0 4 7
r 1.056939 0 1 tcp 1540 ------- 0 0.0 2.0 6 9
+ 1.056939 1 2 tcp 1540 ------- 0 0.0 2.0 6 9
r 1.057816 1 2 tcp 1540 ------- 0 0.0 2.0 3 6
+ 1.057816 2 1 ack 40 ------- 0 2.0 0.0 3 10
- 1.057816 2 1 ack 40 ------- 0 2.0 0.0 3 10
- 1.058048 1 2 tcp 1540 ------- 0 0.0 2.0 5 8
r 1.058848 2 1 ack 40 ------- 0 2.0 0.0 3 10
+ 1.058848 1 0 ack 40 ------- 0 2.0 0.0 3 10
- 1.058848 1 0 ack 40 ------- 0 2.0 0.0 3 10
r 1.059048 1 2 tcp 1540 ------- 0 0.0 2.0 4 7
+ 1.059048 2 1 ack 40 ------- 0 2.0 0.0 4 11
- 1.059048 2 1 ack 40 ------- 0 2.0 0.0 4 11
- 1.05928 1 2 tcp 1540 ------- 0 0.0 2.0 6 9
r 1.06008 2 1 ack 40 ------- 0 2.0 0.0 4 11
+ 1.06008 1 0 ack 40 ------- 0 2.0 0.0 4 11
- 1.06008 1 0 ack 40 ------- 0 2.0 0.0 4 11
r 1.06028 1 2 tcp 1540 ------- 0 0.0 2.0 5 8
+ 1.06028 2 1 ack 40 ------- 0 2.0 0.0 5 12
- 1.06028 2 1 ack 40 ------- 0 2.0 0.0 5 12
r 1.061312 2 1 ack 40 ------- 0 2.0 0.0 5 12
+ 1.061312 1 0 ack 40 ------- 0 2.0 0.0 5 12
- 1.061312 1 0 ack 40 ------- 0 2.0 0.0 5 12
r 1.061512 1 2 tcp 1540 ------- 0 0.0 2.0 6 9
+ 1.061512 2 1 ack 40 ------- 0 2.0 0.0 6 13
- 1.061512 2 1 ack 40 ------- 0 2.0 0.0 6 13
r 1.062544 2 1 ack 40 ------- 0 2.0 0.0 6 13
+ 1.062544 1 0 ack 40 ------- 0 2.0 0.0 6 13
- 1.062544 1 0 ack 40 ------- 0 2.0 0.0 6 13
r 1.068851 1 0 ack 40 ------- 0 2.0 0.0 3 10
+ 1.068851 0 1 tcp 1540 ------- 0 0.0 2.0 7 14
- 1.068851 0 1 tcp 1540 ------- 0 0.0 2.0 7 14
+ 1.068851 0 1 tcp 1540 ------- 0 0.0 2.0 8 15
- 1.068974 0 1 tcp 1540 ------- 0 0.0 2.0 8 15
r 1.070083 1 0 ack 40 ------- 0 2.0 0.0 4 11
+ 1.070083 0 1 tcp 1540 ------- 0 0.0 2.0 9 16
- 1.070083 0 1 tcp 1540 ------- 0 0.0 2.0 9 16
+ 1.070083 0 1 tcp 1540 ------- 0 0.0 2.0 10 17
- 1.070206 0 1 tcp 1540 ------- 0 0.0 2.0 10 17
r 1.071315 1 0 ack 40 ------- 0 2.0 0.0 5 12
+ 1.071315 0 1 tcp 1540 ------- 0 0.0 2.0 11 18
- 1.071315 0 1 tcp 1540 ------- 0 0.0 2.0 11 18
+ 1.071315 0 1 tcp 1540 ------- 0 0.0 2.0 12 19
- 1.071438 0 1 tcp 1540 ------- 0 0.0 2.0 12 19
r 1.072547 1 0 ack 40 ------- 0 2.0 0.0 6 13
+ 1.072547 0 1 tcp 1540 ------- 0 0.0 2.0 13 20
- 1.072547 0 1 tcp 1540 ------- 0 0.0 2.0 13 20
+ 1.072547 0 1 tcp 1540 ------- 0 0.0 2.0 14 21
- 1.07267 0 1 tcp 1540 ------- 0 0.0 2.0 14 21
r 1.078974 0 1 tcp 1540 ------- 0 0.0 2.0 7 14
+ 1.078974 1 2 tcp 1540 ------- 0 0.0 2.0 7 14
- 1.078974 1 2 tcp 1540 ------- 0 0.0 2.0 7 14
r 1.079098 0 1 tcp 1540 ------- 0 0.0 2.0 8 15
+ 1.079098 1 2 tcp 1540 ------- 0 0.0 2.0 8 15
r 1.080206 0 1 tcp 1540 ------- 0 0.0 2.0 9 16
+ 1.080206 1 2 tcp 1540 ------- 0 0.0 2.0 9 16
- 1.080206 1 2 tcp 1540 ------- 0 0.0 2.0 8 15
r 1.08033 0 1 tcp 1540 ------- 0 0.0 2.0 10 17
+ 1.08033 1 2 tcp 1540 ------- 0 0.0 2.0 10 17
r 1.081206 1 2 tcp 1540 ------- 0 0.0 2.0 7 14
+ 1.081206 2 1 ack 40 ------- 0 2.0 0.0 7 22
- 1.081206 2 1 ack 40 ------- 0 2.0 0.0 7 22
r 1.081438 0 1 tcp 1540 ------- 0 0.0 2.0 11 18
+ 1.081438 1 2 tcp 1540 ------- 0 0.0 2.0 11 18
- 1.081438 1 2 tcp 1540 ------- 0 0.0 2.0 9 16
r 1.081562 0 1 tcp 1540 ------- 0 0.0 2.0 12 19
+ 1.081562 1 2 tcp 1540 ------- 0 0.0 2.0 12 19
r 1.082238 2 1 ack 40 ------- 0 2.0 0.0 7 22
+ 1.082238 1 0 ack 40 ------- 0 2.0 0.0 7 22
- 1.082238 1 0 ack 40 ------- 0 2.0 0.0 7 22
r 1.082438 1 2 tcp 1540 ------- 0 0.0 2.0 8 15
+ 1.082438 2 1 ack 40 ------- 0 2.0 0.0 8 23
- 1.082438 2 1 ack 40 ------- 0 2.0 0.0 8 23
r 1.08267 0 1 tcp 1540 ------- 0 0.0 2.0 13 20
+ 1.08267 1 2 tcp 1540 ------- 0 0.0 2.0 13 20
- 1.08267 1 2 tcp 1540 ------- 0 0.0 2.0 10 17
r 1.082794 0 1 tcp 1540 ------- 0 0.0 2.0 14 21
+ 1.082794 1 2 tcp 1540 ------- 0 0.0 2.0 14 21
r 1.08347 2 1 ack 40 ------- 0 2.0 0.0 8 23
+ 1.08347 1 0 ack 40 ------- 0 2.0 0.0 8 23
- 1.08347 1 0 ack 40 ------- 0 2.0 0.0 8 23
r 1.08367 1 2 tcp 1540 ------- 0 0.0 2.0 9 16
+ 1.08367 2 1 ack 40 ------- 0 2.0 0.0 9 24
- 1.08367 2 1 ack 40 ------- 0 2.0 0.0 9 24
- 1.083902 1 2 tcp 1540 ------- 0 0.0 2.0 11 18
r 1.084702 2 1 ack 40 ------- 0 2.0 0.0 9 24
+ 1.084702 1 0 ack 40 ------- 0 2.0 0.0 9 24
- 1.084702 1 0 ack 40 ------- 0 2.0 0.0 9 24
r 1.084902 1 2 tcp 1540 ------- 0 0.0 2.0 10 17
+ 1.084902 2 1 ack 40 ------- 0 2.0 0.0 10 25
- 1.084902 2 1 ack 40 ------- 0 2.0 0.0 10 25
- 1.085134 1 2 tcp 1540 ------- 0 0.0 2.0 12 19
r 1.085934 2 1 ack 40 ------- 0 2.0 0.0 10 25
+ 1.085934 1 0 ack 40 ------- 0 2.0 0.0 10 25
- 1.085934 1 0 ack 40 ------- 0 2.0 0.0 10 25
r 1.086134 1 2 tcp 1540 ------- 0 0.0 2.0 11 18
+ 1.086134 2 1 ack 40 ------- 0 2.0 0.0 11 26
- 1.086134 2 1 ack 40 ------- 0 2.0 0.0 11 26
- 1.086366 1 2 tcp 1540 ------- 0 0.0 2.0 13 20
r 1.087166 2 1 ack 40 ------- 0 2.0 0.0 11 26
+ 1.087166 1 0 ack 40 ------- 0 2.0 0.0 11 26
- 1.087166 1 0 ack 40 ------- 0 2.0 0.0 11 26
r 1.087366 1 2 tcp 1540 ------- 0 0.0 2.0 12 19
+ 1.087366 2 1 ack 40 ------- 0 2.0 0.0 12 27
- 1.087366 2 1 ack 40 ------- 0 2.0 0.0 12 27
- 1.087598 1 2 tcp 1540 ------- 0 0.0 2.0 14 21
r 1.088398 2 1 ack 40 ------- 0 2.0 0.0 12 27
+ 1.088398 1 0 ack 40 ------- 0 2.0 0.0 12 27
- 1.088398 1 0 ack 40 ------- 0 2.0 0.0 12 27
r 1.088598 1 2 tcp 1540 ------- 0 0.0 2.0 13 20
+ 1.088598 2 1 ack 40 ------- 0 2.0 0.0 13 28
- 1.088598 2 1 ack 40 ------- 0 2.0 0.0 13 28
r 1.08963 2 1 ack 40 ------- 0 2.0 0.0 13 28
+ 1.08963 1 0 ack 40 ------- 0 2.0 0.0 13 28
- 1.08963 1 0 ack 40 ------- 0 2.0 0.0 13 28
r 1.08983 1 2 tcp 1540 ------- 0 0.0 2.0 14 21
+ 1.08983 2 1 ack 40 ------- 0 2.0 0.0 14 29
- 1.08983 2 1 ack 40 ------- 0 2.0 0.0 14 29
r 1.090862 2 1 ack 40 ------- 0 2.0 0.0 14 29
+ 1.090862 1 0 ack 40 ------- 0 2.0 0.0 14 29
- 1.090862 1 0 ack 40 ------- 0 2.0 0.0 14 29
r 1.092242 1 0 ack 40 ------- 0 2.0 0.0 7 22
+ 1.092242 0 1 tcp 1540 ------- 0 0.0 2.0 15 30
- 1.092242 0 1 tcp 1540 ------- 0 0.0 2.0 15 30
+ 1.092242 0 1 tcp 1540 ------- 0 0.0 2.0 16 31
- 1.092365 0 1 tcp 1540 ------- 0 0.0 2.0 16 31
r 1.093474 1 0 ack 40 ------- 0 2.0 0.0 8 23
+ 1.093474 0 1 tcp 1540 ------- 0 0.0 2.0 17 32
- 1.093474 0 1 tcp 1540 ------- 0 0.0 2.0 17 32
+ 1.093474 0 1 tcp 1540 ------- 0 0.0 2.0 18 33
- 1.093597 0 1 tcp 1540 ------- 0 0.0 2.0 18 33
r 1.094706 1 0 ack 40 ------- 0 2.0 0.0 9 24
+ 1.094706 0 1 tcp 1540 ------- 0 0.0 2.0 19 34
- 1.094706 0 1 tcp 1540 ------- 0 0.0 2.0 19 34
+ 1.094706 0 1 tcp 1540 ------- 0 0.0 2.0 20 35
- 1.094829 0 1 tcp 1540 ------- 0 0.0 2.0 20 35
r 1.095938 1 0 ack 40 ------- 0 2.0 0.0 10 25
+ 1.095938 0 1 tcp 1540 ------- 0 0.0 2.0 21 36
- 1.095938 0 1 tcp 1540 ------- 0 0.0 2.0 21 36
+ 1.095938 0 1 tcp 1540 ------- 0 0.0 2.0 22 37
- 1.096061 0 1 tcp 1540 ------- 0 0.0 2.0 22 37
r 1.09717 1 0 ack 40 ------- 0 2.0 0.0 11 26
+ 1.09717 0 1 tcp 1540 ------- 0 0.0 2.0 23 38
- 1.09717 0 1 tcp 1540 ------- 0 0.0 2.0 23 38
+ 1.09717 0 1 tcp 1540 ------- 0 0.0 2.0 24 39
- 1.097293 0 1 tcp 1540 ------- 0 0.0 2.0 24 39
r 1.098402 1 0 ack 40 ------- 0 2.0 0.0 12 27
+ 1.098402 0 1 tcp 1540 ------- 0 0.0 2.0 25 40
- 1.098402 0 1 tcp 1540 ------- 0 0.0 2.0 25 40
+ 1.098402 0 1 tcp 1540 ------- 0 0.0 2.0 26 41
- 1.098525 0 1 tcp 1540 ------- 0 0.0 2.0 26 41
r 1.099634 1 0 ack 40 ------- 0 2.0 0.0 13 28
+ 1.099634 0 1 tcp 1540 ------- 0 0.0 2.0 27 42
- 1.099634 0 1 tcp 1540 ------- 0 0.0 2.0 27 42
+ 1.099634 0 1 tcp 1540 ------- 0 0.0 2.0 28 43
- 1.099757 0 1 tcp 1540 ------- 0 0.0 2.0 28 43
r 1.100866 1 0 ack 40 ------- 0 2.0 0.0 14 29
+ 1.100866 0 1 tcp 1540 ------- 0 0.0 2.0 29 44
- 1.100866 0 1 tcp 1540 ------- 0 0.0 2.0 29 44
+ 1.100866 0 1 tcp 1540 ------- 0 0.0 2.0 30 45
- 1.100989 0 1 tcp 1540 ------- 0 0.0 2.0 30 45
r 1.102365 0 1 tcp 1540 ------- 0 0.0 2.0 15 30
+ 1.102365 1 2 tcp 1540 ------- 0 0.0 2.0 15 30
- 1.102365 1 2 tcp 1540 ------- 0 0.0 2.0 15 30
r 1.102488 0 1 tcp 1540 ------- 0 0.0 2.0 16 31
+ 1.102488 1 2 tcp 1540 ------- 0 0.0 2.0 16 31
r 1.103597 0 1 tcp 1540 ------- 0 0.0 2.0 17 32
+ 1.103597 1 2 tcp 1540 ------- 0 0.0 2.0 17 32
- 1.103597 1 2 tcp 1540 ------- 0 0.0 2.0 16 31
r 1.10372 0 1 tcp 1540 ------- 0 0.0 2.0 18 33
+ 1.10372 1 2 tcp 1540 ------- 0 0.0 2.0 18 33
r 1.104597 1 2 tcp 1540 ------- 0 0.0 2.0 15 30
+ 1.104597 2 1 ack 40 ------- 0 2.0 0.0 15 46
- 1.104597 2 1 ack 40 ------- 0 2.0 0.0 15 46
r 1.104829 0 1 tcp 1540 ------- 0 0.0 2.0 19 34
+ 1.104829 1 2 tcp 1540 ------- 0 0.0 2.0 19 34
- 1.104829 1 2 tcp 1540 ------- 0 0.0 2.0 17 32
r 1.104952 0 1 tcp 1540 ------- 0 0.0 2.0 20 35
+ 1.104952 1 2 tcp 1540 ------- 0 0.0 2.0 20 35
r 1.105629 2 1 ack 40 ------- 0 2.0 0.0 15 46
+ 1.105629 1 0 ack 40 ------- 0 2.0 0.0 15 46
- 1.105629 1 0 ack 40 ------- 0 2.0 0.0 15 46
r 1.105829 1 2 tcp 1540 ------- 0 0.0 2.0 16 31
+ 1.105829 2 1 ack 40 ------- 0 2.0 0.0 16 47
- 1.105829 2 1 ack 40 ------- 0 2.0 0.0 16 47
r 1.106061 0 1 tcp 1540 ------- 0 0.0 2.0 21 36
+ 1.106061 1 2 tcp 1540 ------- 0 0.0 2.0 21 36
- 1.106061 1 2 tcp 1540 ------- 0 0.0 2.0 18 33
r 1.106184 0 1 tcp 1540 ------- 0 0.0 2.0 22 37
+ 1.106184 1 2 tcp 1540 ------- 0 0.0 2.0 22 37
r 1.106861 2 1 ack 40 ------- 0 2.0 0.0 16 47
+ 1.106861 1 0 ack 40 ------- 0 2.0 0.0 16 47
- 1.106861 1 0 ack 40 ------- 0 2.0 0.0 16 47
r 1.107061 1 2 tcp 1540 ------- 0 0.0 2.0 17 32
+ 1.107061 2 1 ack 40 ------- 0 2.0 0.0 17 48
- 1.107061 2 1 ack 40 ------- 0 2.0 0.0 17 48
r 1.107293 0 1 tcp 1540 ------- 0 0.0 2.0 23 38
+ 1.107293 1 2 tcp 1540 ------- 0 0.0 2.0 23 38
d 1.107293 1 2 tcp 1540 ------- 0 0.0 2.0 23 38
- 1.107293 1 2 tcp 1540 ------- 0 0.0 2.0 19 34
r 1.107416 0 1 tcp 1540 ------- 0 0.0 2.0 24 39
+ 1.107416 1 2 tcp 1540 ------- 0 0.0 2.0 24 39
r 1.108093 2 1 ack 40 ------- 0 2.0 0.0 17 48
+ 1.108093 1 0 ack 40 ------- 0 2.0 0.0 17 48
- 1.108093 1 0 ack 40 ------- 0 2.0 0.0 17 48
r 1.108293 1 2 tcp 1540 ------- 0 0.0 2.0 18 33
+ 1.108293 2 1 ack 40 ------- 0 2.0 0.0 18 49
- 1.108293 2 1 ack 40 ------- 0 2.0 0.0 18 49
r 1.108525 0 1 tcp 1540 ------- 0 0.0 2.0 25 40
+ 1.108525 1 2 tcp 1540 ------- 0 0.0 2.0 25 40
d 1.108525 1 2 tcp 1540 ------- 0 0.0 2.0 25 40
- 1.108525 1 2 tcp 1540 ------- 0 0.0 2.0 20 35
r 1.108648 0 1 tcp 1540 ------- 0 0.0 2.0 26 41
+ 1.108648 1 2 tcp 1540 ------- 0 0.0 2.0 26 41
r 1.109325 2 1 ack 40 ------- 0 2.0 0.0 18 49
+ 1.109325 1 0 ack 40 ------- 0 2.0 0.0 18 49
- 1.109325 1 0 ack 40 ------- 0 2.0 0.0 18 49
r 1.109525 1 2 tcp 1540 ------- 0 0.0 2.0 19 34
+ 1.109525 2 1 ack 40 ------- 0 2.0 0.0 19 50
- 1.109525 2 1 ack 40 ------- 0 2.0 0.0 19 50
r 1.109757 0 1 tcp 1540 ------- 0 0.0 2.0 27 42
+ 1.109757 1 2 tcp 1540 ------- 0 0.0 2.0 27 42
d 1.109757 1 2 tcp 1540 ------- 0 0.0 2.0 27 42
- 1.109757 1 2 tcp 1540 ------- 0 0.0 2.0 21 36
r 1.10988 0 1 tcp 1540 ------- 0 0.0 2.0 28 43
+ 1.10988 1 2 tcp 1540 ------- 0 0.0 2.0 28 43
r 1.110557 2 1 ack 40 ------- 0 2.0 0.0 19 50
+ 1.110557 1 0 ack 40 ------- 0 2.0 0.0 19 50
- 1.110557 1 0 ack 40 ------- 0 2.0 0.0 19 50
r 1.110757 1 2 tcp 1540 ------- 0 0.0 2.0 20 35
+ 1.110757 2 1 ack 40 ------- 0 2.0 0.0 20 51
- 1.110757 2 1 ack 40 ------- 0 2.0 0.0 20 51
r 1.110989 0 1 tcp 1540 ------- 0 0.0 2.0 29 44
+ 1.110989 1 2 tcp 1540 ------- 0 0.0 2.0 29 44
d 1.110989 1 2 tcp 1540 ------- 0 0.0 2.0 29 44
- 1.110989 1 2 tcp 1540 ------- 0 0.0 2.0 22 37
r 1.111112 0 1 tcp 1540 ------- 0 0.0 2.0 30 45
+ 1.111112 1 2 tcp 1540 ------- 0 0.0 2.0 30 45
r 1.111789 2 1 ack 40 ------- 0 2.0 0.0 20 51
+ 1.111789 1 0 ack 40 ------- 0 2.0 0.0 20 51
- 1.111789 1 0 ack 40 ------- 0 2.0 0.0 20 51
r 1.111989 1 2 tcp 1540 ------- 0 0.0 2.0 21 36
+ 1.111989 2 1 ack 40 ------- 0 2.0 0.0 21 52
- 1.111989 2 1 ack 40 ------- 0 2.0 0.0 21 52
- 1.112221 1 2 tcp 1540 ------- 0 0.0 2.0 24 39
r 1.113021 2 1 ack 40 ------- 0 2.0 0.0 21 52
+ 1.113021 1 0 ack 40 ------- 0 2.0 0.0 21 52
- 1.113021 1 0 ack 40 ------- 0 2.0 0.0 21 52
r 1.113221 1 2 tcp 1540 ------- 0 0.0 2.0 22 37
+ 1.113221 2 1 ack 40 ------- 0 2.0 0.0 22 53
- 1.113221 2 1 ack 40 ------- 0 2.0 0.0 22 53
- 1.113453 1 2 tcp 1540 ------- 0 0.0 2.0 26 41
r 1.114253 2 1 ack 40 ------- 0 2.0 0.0 22 53
+ 1.114253 1 0 ack 40 ------- 0 2.0 0.0 22 53
- 1.114253 1 0 ack 40 ------- 0 2.0 0.0 22 53
r 1.114453 1 2 tcp 1540 ------- 0 0.0 2.0 24 39
+ 1.114453 2 1 ack 40 ------- 0 2.0 0.0 22 54
- 1.114453 2 1 ack 40 ------- 0 2.0 0.0 22 54
- 1.114685 1 2 tcp 1540 ------- 0 0.0 2.0 28 43
r 1.115485 2 1 ack 40 ------- 0 2.0 0.0 22 54
+ 1.115485 1 0 ack 40 ------- 0 2.0 0.0 22 54
- 1.115485 1 0 ack 40 ------- 0 2.0 0.0 22 54
r 1.115632 1 0 ack 40 ------- 0 2.0 0.0 15 46
+ 1.115632 0 1 tcp 1540 ------- 0 0.0 2.0 31 55
- 1.115632 0 1 tcp 1540 ------- 0 0.0 2.0 31 55
+ 1.115632 0 1 tcp 1540 ------- 0 0.0 2.0 32 56
r 1.115685 1 2 tcp 1540 ------- 0 0.0 2.0 26 41
+ 1.115685 2 1 ack 40 ------- 0 2.0 0.0 22 57
- 1.115685 2 1 ack 40 ------- 0 2.0 0.0 22 57
- 1.115755 0 1 tcp 1540 ------- 0 0.0 2.0 32 56
- 1.115917 1 2 tcp 1540 ------- 0 0.0 2.0 30 45
r 1.116717 2 1 ack 40 ------- 0 2.0 0.0 22 57
+ 1.116717 1 0 ack 40 ------- 0 2.0 0.0 22 57
- 1.116717 1 0 ack 40 ------- 0 2.0 0.0 22 57
r 1.116864 1 0 ack 40 ------- 0 2.0 0.0 16 47
+ 1.116864 0 1 tcp 1540 ------- 0 0.0 2.0 33 58
- 1.116864 0 1 tcp 1540 ------- 0 0.0 2.0 33 58
+ 1.116864 0 1 tcp 1540 ------- 0 0.0 2.0 34 59
r 1.116917 1 2 tcp 1540 ------- 0 0.0 2.0 28 43
+ 1.116917 2 1 ack 40 ------- 0 2.0 0.0 22 60
- 1.116917 2 1 ack 40 ------- 0 2.0 0.0 22 60
- 1.116987 0 1 tcp 1540 ------- 0 0.0 2.0 34 59
r 1.117949 2 1 ack 40 ------- 0 2.0 0.0 22 60
+ 1.117949 1 0 ack 40 ------- 0 2.0 0.0 22 60
- 1.117949 1 0 ack 40 ------- 0 2.0 0.0 22 60
r 1.118096 1 0 ack 40 ------- 0 2.0 0.0 17 48
+ 1.118096 0 1 tcp 1540 ------- 0 0.0 2.0 35 61
- 1.118096 0 1 tcp 1540 ------- 0 0.0 2.0 35 61
+ 1.118096 0 1 tcp 1540 ------- 0 0.0 2.0 36 62
r 1.118149 1 2 tcp 1540 ------- 0 0.0 2.0 30 45
+ 1.118149 2 1 ack 40 ------- 0 2.0 0.0 22 63
- 1.118149 2 1 ack 40 ------- 0 2.0 0.0 22 63
- 1.118219 0 1 tcp 1540 ------- 0 0.0 2.0 36 62
r 1.119181 2 1 ack 40 ------- 0 2.0 0.0 22 63
+ 1.119181 1 0 ack 40 ------- 0 2.0 0.0 22 63
- 1.119181 1 0 ack 40 ------- 0 2.0 0.0 22 63
r 1.119328 1 0 ack 40 ------- 0 2.0 0.0 18 49
+ 1.119328 0 1 tcp 1540 ------- 0 0.0 2.0 37 64
- 1.119328 0 1 tcp 1540 ------- 0 0.0 2.0 37 64
+ 1.119328 0 1 tcp 1540 ------- 0 0.0 2.0 38 65
- 1.119451 0 1 tcp 1540 ------- 0 0.0 2.0 38 65
r 1.12056 1 0 ack 40 ------- 0 2.0 0.0 19 50
+ 1.12056 0 1 tcp 1540 ------- 0 0.0 2.0 39 66
- 1.12056 0 1 tcp 1540 ------- 0 0.0 2.0 39 66
r 1.121792 1 0 ack 40 ------- 0 2.0 0.0 20 51
+ 1.121792 0 1 tcp 1540 ------- 0 0.0 2.0 40 67
- 1.121792 0 1 tcp 1540 ------- 0 0.0 2.0 40 67
r 1.123024 1 0 ack 40 ------- 0 2.0 0.0 21 52
+ 1.123024 0 1 tcp 1540 ------- 0 0.0 2.0 41 68
- 1.123024 0 1 tcp 1540 ------- 0 0.0 2.0 41 68
r 1.124256 1 0 ack 40 ------- 0 2.0 0.0 22 53
+ 1.124256 0 1 tcp 1540 ------- 0 0.0 2.0 42 69
- 1.124256 0 1 tcp 1540 ------- 0 0.0 2.0 42 69
r 1.125488 1 0 ack 40 ------- 0 2.0 0.0 22 54
r 1.125755 0 1 tcp 1540 ------- 0 0.0 2.0 31 55
+ 1.125755 1 2 tcp 1540 ------- 0 0.0 2.0 31 55
- 1.125755 1 2 tcp 1540 ------- 0 0.0 2.0 31 55
r 1.125878 0 1 tcp 1540 ------- 0 0.0 2.0 32 56
+ 1.125878 1 2 tcp 1540 ------- 0 0.0 2.0 32 56
r 1.12672 1 0 ack 40 ------- 0 2.0 0.0 22 57
r 1.126987 0 1 tcp 1540 ------- 0 0.0 2.0 33 58
+ 1.126987 1 2 tcp 1540 ------- 0 0.0 2.0 33 58
- 1.126987 1 2 tcp 1540 ------- 0 0.0 2.0 32 56
r 1.12711 0 1 tcp 1540 ------- 0 0.0 2.0 34 59
+ 1.12711 1 2 tcp 1540 ------- 0 0.0 2.0 34 59
r 1.127952 1 0 ack 40 ------- 0 2.0 0.0 22 60
+ 1.127952 0 1 tcp 1540 ---A--- 0 0.0 2.0 23 70
- 1.127952 0 1 tcp 1540 ---A--- 0 0.0 2.0 23 70
r 1.127987 1 2 tcp 1540 ------- 0 0.0 2.0 31 55
+ 1.127987 2 1 ack 40 ------- 0 2.0 0.0 22 71
- 1.127987 2 1 ack 40 ------- 0 2.0 0.0 22 71
r 1.128219 0 1 tcp 1540 ------- 0 0.0 2.0 35 61
+ 1.128219 1 2 tcp 1540 ------- 0 0.0 2.0 35 61
- 1.128219 1 2 tcp 1540 ------- 0 0.0 2.0 33 58
r 1.128342 0 1 tcp 1540 ------- 0 0.0 2.0 36 62
+ 1.128342 1 2 tcp 1540 ------- 0 0.0 2.0 36 62
r 1.129019 2 1 ack 40 ------- 0 2.0 0.0 22 71
+ 1.129019 1 0 ack 40 ------- 0 2.0 0.0 22 71
- 1.129019 1 0 ack 40 ------- 0 2.0 0.0 22 71
r 1.129184 1 0 ack 40 ------- 0 2.0 0.0 22 63
r 1.129219 1 2 tcp 1540 ------- 0 0.0 2.0 32 56
+ 1.129219 2 1 ack 40 ------- 0 2.0 0.0 22 72
- 1.129219 2 1 ack 40 ------- 0 2.0 0.0 22 72
r 1.129451 0 1 tcp 1540 ------- 0 0.0 2.0 37 64
+ 1.129451 1 2 tcp 1540 ------- 0 0.0 2.0 37 64
- 1.129451 1 2 tcp 1540 ------- 0 0.0 2.0 34 59
r 1.129574 0 1 tcp 1540 ------- 0 0.0 2.0 38 65
+ 1.129574 1 2 tcp 1540 ------- 0 0.0 2.0 38 65
r 1.130251 2 1 ack 40 ------- 0 2.0 0.0 22 72
+ 1.130251 1 0 ack 40 ------- 0 2.0 0.0 22 72
- 1.130251 1 0 ack 40 ------- 0 2.0 0.0 22 72
r 1.130451 1 2 tcp 1540 ------- 0 0.0 2.0 33 58
+ 1.130451 2 1 ack 40 ------- 0 2.0 0.0 22 73
- 1.130451 2 1 ack 40 ------- 0 2.0 0.0 22 73
r 1.130683 0 1 tcp 1540 ------- 0 0.0 2.0 39 66
+ 1.130683 1 2 tcp 1540 ------- 0 0.0 2.0 39 66
d 1.130683 1 2 tcp 1540 ------- 0 0.0 2.0 39 66
- 1.130683 1 2 tcp 1540 ------- 0 0.0 2.0 35 61
r 1.131483 2 1 ack 40 ------- 0 2.0 0.0 22 73
+ 1.131483 1 0 ack 40 ------- 0 2.0 0.0 22 73
- 1.131483 1 0 ack 40 ------- 0 2.0 0.0 22 73
r 1.131683 1 2 tcp 1540 ------- 0 0.0 2.0 34 59
+ 1.131683 2 1 ack 40 ------- 0 2.0 0.0 22 74
- 1.131683 2 1 ack 40 ------- 0 2.0 0.0 22 74
r 1.131915 0 1 tcp 1540 ------- 0 0.0 2.0 40 67
+ 1.131915 1 2 tcp 1540 ------- 0 0.0 2.0 40 67
- 1.131915 1 2 tcp 1540 ------- 0 0.0 2.0 36 62
r 1.132715 2 1 ack 40 ------- 0 2.0 0.0 22 74
+ 1.132715 1 0 ack 40 ------- 0 2.0 0.0 22 74
- 1.132715 1 0 ack 40 ------- 0 2.0 0.0 22 74
r 1.132915 1 2 tcp 1540 ------- 0 0.0 2.0 35 61
+ 1.132915 2 1 ack 40 ------- 0 2.0 0.0 22 75
- 1.132915 2 1 ack 40 ------- 0 2.0 0.0 22 75
r 1.133147 0 1 tcp 1540 ------- 0 0.0 2.0 41 68
+ 1.133147 1 2 tcp 1540 ------- 0 0.0 2.0 41 68
- 1.133147 1 2 tcp 1540 ------- 0 0.0 2.0 37 64
r 1.133947 2 1 ack 40 ------- 0 2.0 0.0 22 75
+ 1.133947 1 0 ack 40 ------- 0 2.0 0.0 22 75
- 1.133947 1 0 ack 40 ------- 0 2.0 0.0 22 75
r 1.134147 1 2 tcp 1540 ------- 0 0.0 2.0 36 62
+ 1.134147 2 1 ack 40 ------- 0 2.0 0.0 22 76
- 1.134147 2 1 ack 40 ------- 0 2.0 0.0 22 76
r 1.134379 0 1 tcp 1540 ------- 0 0.0 2.0 42 69
+ 1.134379 1 2 tcp 1540 ------- 0 0.0 2.0 42 69
- 1.134379 1 2 tcp 1540 ------- 0 0.0 2.0 38 65
r 1.135179 2 1 ack 40 ------- 0 2.0 0.0 22 76
+ 1.135179 1 0 ack 40 ------- 0 2.0 0.0 22 76
- 1.135179 1 0 ack 40 ------- 0 2.0 0.0 22 76
r 1.135379 1 2 tcp 1540 ------- 0 0.0 2.0 37 64
+ 1.135379 2 1 ack 40 ------- 0 2.0 0.0 22 77
- 1.135379 2 1 ack 40 ------- 0 2.0 0.0 22 77
- 1.135611 1 2 tcp 1540 ------- 0 0.0 2.0 40 67
r 1.136411 2 1 ack 40 ------- 0 2.0 0.0 22 77
+ 1.136411 1 0 ack 40 ------- 0 2.0 0.0 22 77
- 1.136411 1 0 ack 40 ------- 0 2.0 0.0 22 77
r 1.136611 1 2 tcp 1540 ------- 0 0.0 2.0 38 65
+ 1.136611 2 1 ack 40 ------- 0 2.0 0.0 22 78
- 1.136611 2 1 ack 40 ------- 0 2.0 0.0 22 78
- 1.136843 1 2 tcp 1540 ------- 0 0.0 2.0 41 68
r 1.137643 2 1 ack 40 ------- 0 2.0 0.0 22 78
+ 1.137643 1 0 ack 40 ------- 0 2.0 0.0 22 78
- 1.137643 1 0 ack 40 ------- 0 2.0 0.0 22 78
r 1.137843 1 2 tcp 1540 ------- 0 0.0 2.0 40 67
+ 1.137843 2 1 ack 40 ------- 0 2.0 0.0 22 79
- 1.137843 2 1 ack 40 ------- 0 2.0 0.0 22 79
r 1.138075 0 1 tcp 1540 ---A--- 0 0.0 2.0 23 70
+ 1.138075 1 2 tcp 1540 ---A--- 0 0.0 2.0 23 70
- 1.138075 1 2 tcp 1540 ------- 0 0.0 2.0 42 69
r 1.138875 2 1 ack 40 ------- 0 2.0 0.0 22 79
+ 1.138875 1 0 ack 40 ------- 0 2.0 0.0 22 79
- 1.138875 1 0 ack 40 ------- 0 2.0 0.0 22 79
r 1.139022 1 0 ack 40 ------- 0 2.0 0.0 22 71
r 1.139075 1 2 tcp 1540 ------- 0 0.0 2.0 41 68
+ 1.139075 2 1 ack 40 ------- 0 2.0 0.0 22 80
- 1.139075 2 1 ack 40 ------- 0 2.0 0.0 22 80
- 1.139307 1 2 tcp 1540 ---A--- 0 0.0 2.0 23 70
r 1.140107 2 1 ack 40 ------- 0 2.0 0.0 22 80
+ 1.140107 1 0 ack 40 ------- 0 2.0 0.0 22 80
- 1.140107 1 0 ack 40 ------- 0 2.0 0.0 22 80
r 1.140254 1 0 ack 40 ------- 0 2.0 0.0 22 72
r 1.140307 1 2 tcp 1540 ------- 0 0.0 2.0 42 69
+ 1.140307 2 1 ack 40 ------- 0 2.0 0.0 22 81
- 1.140307 2 1 ack 40 ------- 0 2.0 0.0 22 81
r 1.141339 2 1 ack 40 ------- 0 2.0 0.0 22 81
+ 1.141339 1 0 ack 40 ------- 0 2.0 0.0 22 81
- 1.141339 1 0 ack 40 ------- 0 2.0 0.0 22 81
r 1.141486 1 0 ack 40 ------- 0 2.0 0.0 22 73
r 1.141539 1 2 tcp 1540 ---A--- 0 0.0 2.0 23 70
+ 1.141539 2 1 ack 40 ------- 0 2.0 0.0 24 82
- 1.141539 2 1 ack 40 ------- 0 2.0 0.0 24 82
r 1.142571 2 1 ack 40 ------- 0 2.0 0.0 24 82
+ 1.142571 1 0 ack 40 ------- 0 2.0 0.0 24 82
- 1.142571 1 0 ack 40 ------- 0 2.0 0.0 24 82
r 1.142718 1 0 ack 40 ------- 0 2.0 0.0 22 74
r 1.14395 1 0 ack 40 ------- 0 2.0 0.0 22 75
r 1.145182 1 0 ack 40 ------- 0 2.0 0.0 22 76
r 1.146414 1 0 ack 40 ------- 0 2.0 0.0 22 77
r 1.147646 1 0 ack 40 ------- 0 2.0 0.0 22 78
r 1.148878 1 0 ack 40 ------- 0 2.0 0.0 22 79
r 1.15011 1 0 ack 40 ------- 0 2.0 0.0 22 80
r 1.151342 1 0 ack 40 ------- 0 2.0 0.0 22 81
r 1.152574 1 0 ack 40 ------- 0 2.0 0.0 24 82
+ 1.152574 0 1 tcp 1540 ------- 0 0.0 2.0 25 83
- 1.152574 0 1 tcp 1540 ------- 0 0.0 2.0 25 83
+ 1.152574 0 1 tcp 1540 ------- 0 0.0 2.0 26 84
- 1.152698 0 1 tcp 1540 ------- 0 0.0 2.0 26 84
r 1.162698 0 1 tcp 1540 ------- 0 0.0 2.0 25 83
+ 1.162698 1 2 tcp 1540 ------- 0 0.0 2.0 25 83
- 1.162698 1 2 tcp 1540 ------- 0 0.0 2.0 25 83
r 1.162821 0 1 tcp 1540 ------- 0 0.0 2.0 26 84
+ 1.162821 1 2 tcp 1540 ------- 0 0.0 2.0 26 84
- 1.16393 1 2 tcp 1540 ------- 0 0.0 2.0 26 84
r 1.16493 1 2 tcp 1540 ------- 0 0.0 2.0 25 83
+ 1.16493 2 1 ack 40 ------- 0 2.0 0.0 26 85
- 1.16493 2 1 ack 40 ------- 0 2.0 0.0 26 85
r 1.165962 2 1 ack 40 ------- 0 2.0 0.0 26 85
+ 1.165962 1 0 ack 40 ------- 0 2.0 0.0 26 85
- 1.165962 1 0 ack 40 ------- 0 2.0 0.0 26 85
r 1.166162 1 2 tcp 1540 ------- 0 0.0 2.0 26 84
+ 1.166162 2 1 ack 40 ------- 0 2.0 0.0 26 86
- 1.166162 2 1 ack 40 ------- 0 2.0 0.0 26 86
r 1.167194 2 1 ack 40 ------- 0 2.0 0.0 26 86
+ 1.167194 1 0 ack 40 ------- 0 2.0 0.0 26 86
- 1.167194 1 0 ack 40 ------- 0 2.0 0.0 26 86
r 1.175965 1 0 ack 40 ------- 0 2.0 0.0 26 85
+ 1.175965 0 1 tcp 1540 ------- 0 0.0 2.0 27 87
- 1.175965 0 1 tcp 1540 ------- 0 0.0 2.0 27 87
+ 1.175965 0 1 tcp 1540 ------- 0 0.0 2.0 28 88
+ 1.175965 0 1 tcp 1540 ------- 0 0.0 2.0 29 89
- 1.176088 0 1 tcp 1540 ------- 0 0.0 2.0 28 88
- 1.176211 0 1 tcp 1540 ------- 0 0.0 2.0 29 89
r 1.177197 1 0 ack 40 ------- 0 2.0 0.0 26 86
+ 1.177197 0 1 tcp 1540 ------- 0 0.0 2.0 30 90
- 1.177197 0 1 tcp 1540 ------- 0 0.0 2.0 30 90
r 1.186088 0 1 tcp 1540 ------- 0 0.0 2.0 27 87
+ 1.186088 1 2 tcp 1540 ------- 0 0.0 2.0 27 87
- 1.186088 1 2 tcp 1540 ------- 0 0.0 2.0 27 87
r 1.186211 0 1 tcp 1540 ------- 0 0.0 2.0 28 88
+ 1.186211 1 2 tcp 1540 ------- 0 0.0 2.0 28 88
r 1.186334 0 1 tcp 1540 ------- 0 0.0 2.0 29 89
+ 1.186334 1 2 tcp 1540 ------- 0 0.0 2.0 29 89
r 1.18732 0 1 tcp 1540 ------- 0 0.0 2.0 30 90
+ 1.18732 1 2 tcp 1540 ------- 0 0.0 2.0 30 90
- 1.18732 1 2 tcp 1540 ------- 0 0.0 2.0 28 88
r 1.18832 1 2 tcp 1540 ------- 0 0.0 2.0 27 87
+ 1.18832 2 1 ack 40 ------- 0 2.0 0.0 28 91
- 1.18832 2 1 ack 40 ------- 0 2.0 0.0 28 91
- 1.188552 1 2 tcp 1540 ------- 0 0.0 2.0 29 89
r 1.189352 2 1 ack 40 ------- 0 2.0 0.0 28 91
+ 1.189352 1 0 ack 40 ------- 0 2.0 0.0 28 91
- 1.189352 1 0 ack 40 ------- 0 2.0 0.0 28 91
r 1.189552 1 2 tcp 1540 ------- 0 0.0 2.0 28 88
+ 1.189552 2 1 ack 40 ------- 0 2.0 0.0 28 92
- 1.189552 2 1 ack 40 ------- 0 2.0 0.0 28 92
- 1.189784 1 2 tcp 1540 ------- 0 0.0 2.0 30 90
r 1.190584 2 1 ack 40 ------- 0 2.0 0.0 28 92
+ 1.190584 1 0 ack 40 ------- 0 2.0 0.0 28 92
- 1.190584 1 0 ack 40 ------- 0 2.0 0.0 28 92
r 1.190784 1 2 tcp 1540 ------- 0 0.0 2.0 29 89
+ 1.190784 2 1 ack 40 ------- 0 2.0 0.0 38 93
- 1.190784 2 1 ack 40 ------- 0 2.0 0.0 38 93
r 1.191816 2 1 ack 40 ------- 0 2.0 0.0 38 93
+ 1.191816 1 0 ack 40 ------- 0 2.0 0.0 38 93
- 1.191816 1 0 ack 40 ------- 0 2.0 0.0 38 93
r 1.192016 1 2 tcp 1540 ------- 0 0.0 2.0 30 90
+ 1.192016 2 1 ack 40 ------- 0 2.0 0.0 38 94
- 1.192016 2 1 ack 40 ------- 0 2.0 0.0 38 94
r 1.193048 2 1 ack 40 ------- 0 2.0 0.0 38 94
+ 1.193048 1 0 ack 40 ------- 0 2.0 0.0 38 94
- 1.193048 1 0 ack 40 ------- 0 2.0 0.0 38 94
r 1.199355 1 0 ack 40 ------- 0 2.0 0.0 28 91
+ 1.199355 0 1 tcp 1540 ------- 0 0.0 2.0 31 95
- 1.199355 0 1 tcp 1540 ------- 0 0.0 2.0 31 95
+ 1.199355 0 1 tcp 1540 ------- 0 0.0 2.0 32 96
- 1.199478 0 1 tcp 1540 ------- 0 0.0 2.0 32 96
r 1.200587 1 0 ack 40 ------- 0 2.0 0.0 28 92
+ 1.200587 0 1 tcp 1540 ------- 0 0.0 2.0 33 97
- 1.200587 0 1 tcp 1540 ------- 0 0.0 2.0 33 97
r 1.201819 1 0 ack 40 ------- 0 2.0 0.0 38 93
+ 1.201819 0 1 tcp 1540 ------- 0 0.0 2.0 39 98
- 1.201819 0 1 tcp 1540 ------- 0 0.0 2.0 39 98
+ 1.201819 0 1 tcp 1540 ------- 0 0.0 2.0 40 99
+ 1.201819 0 1 tcp 1540 ------- 0 0.0 2.0 41 100
+ 1.201819 0 1 tcp 1540 ------- 0 0.0 2.0 42 101
+ 1.201819 0 1 tcp 1540 ------- 0 0.0 2.0 43 102
- 1.201942 0 1 tcp 1540 ------- 0 0.0 2.0 40 99
- 1.202066 0 1 tcp 1540 ------- 0 0.0 2.0 41 100
- 1.202189 0 1 tcp 1540 ------- 0 0.0 2.0 42 101
- 1.202312 0 1 tcp 1540 ------- 0 0.0 2.0 43 102
r 1.203051 1 0 ack 40 ------- 0 2.0 0.0 38 94
+ 1.203051 0 1 tcp 1540 ------- 0 0.0 2.0 44 103
- 1.203051 0 1 tcp 1540 ------- 0 0.0 2.0 44 103
r 1.209478 0 1 tcp 1540 ------- 0 0.0 2.0 31 95
+ 1.209478 1 2 tcp 1540 ------- 0 0.0 2.0 31 95
- 1.209478 1 2 tcp 1540 ------- 0 0.0 2.0 31 95
r 1.209602 0 1 tcp 1540 ------- 0 0.0 2.0 32 96
+ 1.209602 1 2 tcp 1540 ------- 0 0.0 2.0 32 96
r 1.21071 0 1 tcp 1540 ------- 0 0.0 2.0 33 97
+ 1.21071 1 2 tcp 1540 ------- 0 0.0 2.0 33 97
- 1.21071 1 2 tcp 1540 ------- 0 0.0 2.0 32 96
r 1.21171 1 2 tcp 1540 ------- 0 0.0 2.0 31 95
+ 1.21171 2 1 ack 40 ------- 0 2.0 0.0 38 104
- 1.21171 2 1 ack 40 ------- 0 2.0 0.0 38 104
r 1.211942 0 1 tcp 1540 ------- 0 0.0 2.0 39 98
+ 1.211942 1 2 tcp 1540 ------- 0 0.0 2.0 39 98
- 1.211942 1 2 tcp 1540 ------- 0 0.0 2.0 33 97
r 1.212066 0 1 tcp 1540 ------- 0 0.0 2.0 40 99
+ 1.212066 1 2 tcp 1540 ------- 0 0.0 2.0 40 99
r 1.212189 0 1 tcp 1540 ------- 0 0.0 2.0 41 100
+ 1.212189 1 2 tcp 1540 ------- 0 0.0 2.0 41 100
r 1.212312 0 1 tcp 1540 ------- 0 0.0 2.0 42 101
+ 1.212312 1 2 tcp 1540 ------- 0 0.0 2.0 42 101
r 1.212435 0 1 tcp 1540 ------- 0 0.0 2.0 43 102
+ 1.212435 1 2 tcp 1540 ------- 0 0.0 2.0 43 102
d 1.212435 1 2 tcp 1540 ------- 0 0.0 2.0 43 102
r 1.212742 2 1 ack 40 ------- 0 2.0 0.0 38 104
+ 1.212742 1 0 ack 40 ------- 0 2.0 0.0 38 104
- 1.212742 1 0 ack 40 ------- 0 2.0 0.0 38 104
r 1.212942 1 2 tcp 1540 ------- 0 0.0 2.0 32 96
+ 1.212942 2 1 ack 40 ------- 0 2.0 0.0 38 105
- 1.212942 2 1 ack 40 ------- 0 2.0 0.0 38 105
r 1.213174 0 1 tcp 1540 ------- 0 0.0 2.0 44 103
+ 1.213174 1 2 tcp 1540 ------- 0 0.0 2.0 44 103
d 1.213174 1 2 tcp 1540 ------- 0 0.0 2.0 44 103
- 1.213174 1 2 tcp 1540 ------- 0 0.0 2.0 39 98
r 1.213974 2 1 ack 40 ------- 0 2.0 0.0 38 105
+ 1.213974 1 0 ack 40 ------- 0 2.0 0.0 38 105
- 1.213974 1 0 ack 40 ------- 0 2.0 0.0 38 105
r 1.214174 1 2 tcp 1540 ------- 0 0.0 2.0 33 97
+ 1.214174 2 1 ack 40 ------- 0 2.0 0.0 38 106
- 1.214174 2 1 ack 40 ------- 0 2.0 0.0 38 106
- 1.214406 1 2 tcp 1540 ------- 0 0.0 2.0 40 99
r 1.215206 2 1 ack 40 ------- 0 2.0 0.0 38 106
+ 1.215206 1 0 ack 40 ------- 0 2.0 0.0 38 106
- 1.215206 1 0 ack 40 ------- 0 2.0 0.0 38 106
r 1.215406 1 2 tcp 1540 ------- 0 0.0 2.0 39 98
+ 1.215406 2 1 ack 40 ------- 0 2.0 0.0 42 107
- 1.215406 2 1 ack 40 ------- 0 2.0 0.0 42 107
- 1.215638 1 2 tcp 1540 ------- 0 0.0 2.0 41 100
r 1.216438 2 1 ack 40 ------- 0 2.0 0.0 42 107
+ 1.216438 1 0 ack 40 ------- 0 2.0 0.0 42 107
- 1.216438 1 0 ack 40 ------- 0 2.0 0.0 42 107
r 1.216638 1 2 tcp 1540 ------- 0 0.0 2.0 40 99
+ 1.216638 2 1 ack 40 ------- 0 2.0 0.0 42 108
- 1.216638 2 1 ack 40 ------- 0 2.0 0.0 42 108
- 1.21687 1 2 tcp 1540 ------- 0 0.0 2.0 42 101
r 1.21767 2 1 ack 40 ------- 0 2.0 0.0 42 108
+ 1.21767 1 0 ack 40 ------- 0 2.0 0.0 42 108
- 1.21767 1 0 ack 40 ------- 0 2.0 0.0 42 108
r 1.21787 1 2 tcp 1540 ------- 0 0.0 2.0 41 100
+ 1.21787 2 1 ack 40 ------- 0 2.0 0.0 42 109