+ 0.1 0 1 ping 50000 ------- 1 0.0 5.0 -1 0
- 0.1 0 1 ping 50000 ------- 1 0.0 5.0 -1 0
+ 0.1 5 4 ping 30000 ------- 2 5.0 0.0 -1 1
- 0.1 5 4 ping 30000 ------- 2 5.0 0.0 -1 1
r 0.114 0 1 ping 50000 ------- 1 0.0 5.0 -1 0
+ 0.114 1 2 ping 50000 ------- 1 0.0 5.0 -1 0
- 0.114 1 2 ping 50000 ------- 1 0.0 5.0 -1 0
r 0.132 1 2 ping 50000 ------- 1 0.0 5.0 -1 0
+ 0.132 2 3 ping 50000 ------- 1 0.0 5.0 -1 0
- 0.132 2 3 ping 50000 ------- 1 0.0 5.0 -1 0
r 0.134 5 4 ping 30000 ------- 2 5.0 0.0 -1 1
+ 0.134 4 3 ping 30000 ------- 2 5.0 0.0 -1 1
- 0.134 4 3 ping 30000 ------- 2 5.0 0.0 -1 1
+ 0.2 0 1 ping 50000 ------- 1 0.0 5.0 -1 2
- 0.2 0 1 ping 50000 ------- 1 0.0 5.0 -1 2
+ 0.2 5 4 ping 30000 ------- 2 5.0 0.0 -1 3
- 0.2 5 4 ping 30000 ------- 2 5.0 0.0 -1 3
r 0.214 0 1 ping 50000 ------- 1 0.0 5.0 -1 2
+ 0.214 1 2 ping 50000 ------- 1 0.0 5.0 -1 2
- 0.214 1 2 ping 50000 ------- 1 0.0 5.0 -1 2
r 0.232 1 2 ping 50000 ------- 1 0.0 5.0 -1 2
+ 0.232 2 3 ping 50000 ------- 1 0.0 5.0 -1 2
r 0.234 5 4 ping 30000 ------- 2 5.0 0.0 -1 3
+ 0.234 4 3 ping 30000 ------- 2 5.0 0.0 -1 3
+ 0.3 0 1 ping 50000 ------- 1 0.0 5.0 -1 4
- 0.3 0 1 ping 50000 ------- 1 0.0 5.0 -1 4
+ 0.3 5 4 ping 30000 ------- 2 5.0 0.0 -1 5
- 0.3 5 4 ping 30000 ------- 2 5.0 0.0 -1 5
r 0.314 0 1 ping 50000 ------- 1 0.0 5.0 -1 4
+ 0.314 1 2 ping 50000 ------- 1 0.0 5.0 -1 4
- 0.314 1 2 ping 50000 ------- 1 0.0 5.0 -1 4
r 0.332 1 2 ping 50000 ------- 1 0.0 5.0 -1 4
+ 0.332 2 3 ping 50000 ------- 1 0.0 5.0 -1 4
r 0.334 5 4 ping 30000 ------- 2 5.0 0.0 -1 5
+ 0.334 4 3 ping 30000 ------- 2 5.0 0.0 -1 5
- 0.374 4 3 ping 30000 ------- 2 5.0 0.0 -1 3
r 0.384 4 3 ping 30000 ------- 2 5.0 0.0 -1 1
+ 0.384 3 2 ping 30000 ------- 2 5.0 0.0 -1 1
- 0.384 3 2 ping 30000 ------- 2 5.0 0.0 -1 1
+ 0.4 0 1 ping 50000 ------- 1 0.0 5.0 -1 6
- 0.4 0 1 ping 50000 ------- 1 0.0 5.0 -1 6
+ 0.4 5 4 ping 30000 ------- 2 5.0 0.0 -1 7
- 0.4 5 4 ping 30000 ------- 2 5.0 0.0 -1 7
r 0.414 0 1 ping 50000 ------- 1 0.0 5.0 -1 6
+ 0.414 1 2 ping 50000 ------- 1 0.0 5.0 -1 6
- 0.414 1 2 ping 50000 ------- 1 0.0 5.0 -1 6
r 0.432 1 2 ping 50000 ------- 1 0.0 5.0 -1 6
+ 0.432 2 3 ping 50000 ------- 1 0.0 5.0 -1 6
r 0.434 5 4 ping 30000 ------- 2 5.0 0.0 -1 7
+ 0.434 4 3 ping 30000 ------- 2 5.0 0.0 -1 7
- 0.532 2 3 ping 50000 ------- 1 0.0 5.0 -1 2
r 0.542 2 3 ping 50000 ------- 1 0.0 5.0 -1 0
+ 0.542 3 4 ping 50000 ------- 1 0.0 5.0 -1 0
- 0.542 3 4 ping 50000 ------- 1 0.0 5.0 -1 0
- 0.614 4 3 ping 30000 ------- 2 5.0 0.0 -1 5
r 0.624 4 3 ping 30000 ------- 2 5.0 0.0 -1 3
+ 0.624 3 2 ping 30000 ------- 2 5.0 0.0 -1 3
- 0.624 3 2 ping 30000 ------- 2 5.0 0.0 -1 3
r 0.634 3 2 ping 30000 ------- 2 5.0 0.0 -1 1
+ 0.634 2 1 ping 30000 ------- 2 5.0 0.0 -1 1
- 0.634 2 1 ping 30000 ------- 2 5.0 0.0 -1 1
r 0.6488 2 1 ping 30000 ------- 2 5.0 0.0 -1 1
+ 0.6488 1 0 ping 30000 ------- 2 5.0 0.0 -1 1
- 0.6488 1 0 ping 30000 ------- 2 5.0 0.0 -1 1
r 0.6612 1 0 ping 30000 ------- 2 5.0 0.0 -1 1
+ 0.6612 0 1 ping 50000 ------- 1 0.0 5.0 -1 8
- 0.6612 0 1 ping 50000 ------- 1 0.0 5.0 -1 8
r 0.6752 0 1 ping 50000 ------- 1 0.0 5.0 -1 8
+ 0.6752 1 2 ping 50000 ------- 1 0.0 5.0 -1 8
- 0.6752 1 2 ping 50000 ------- 1 0.0 5.0 -1 8
r 0.6932 1 2 ping 50000 ------- 1 0.0 5.0 -1 8
+ 0.6932 2 3 ping 50000 ------- 1 0.0 5.0 -1 8
- 0.854 4 3 ping 30000 ------- 2 5.0 0.0 -1 7
r 0.864 4 3 ping 30000 ------- 2 5.0 0.0 -1 5
+ 0.864 3 2 ping 30000 ------- 2 5.0 0.0 -1 5
- 0.864 3 2 ping 30000 ------- 2 5.0 0.0 -1 5
r 0.874 3 2 ping 30000 ------- 2 5.0 0.0 -1 3
+ 0.874 2 1 ping 30000 ------- 2 5.0 0.0 -1 3
- 0.874 2 1 ping 30000 ------- 2 5.0 0.0 -1 3
r 0.8888 2 1 ping 30000 ------- 2 5.0 0.0 -1 3
+ 0.8888 1 0 ping 30000 ------- 2 5.0 0.0 -1 3
- 0.8888 1 0 ping 30000 ------- 2 5.0 0.0 -1 3
r 0.9012 1 0 ping 30000 ------- 2 5.0 0.0 -1 3
+ 0.9012 0 1 ping 50000 ------- 1 0.0 5.0 -1 9
- 0.9012 0 1 ping 50000 ------- 1 0.0 5.0 -1 9
r 0.9152 0 1 ping 50000 ------- 1 0.0 5.0 -1 9
+ 0.9152 1 2 ping 50000 ------- 1 0.0 5.0 -1 9
- 0.9152 1 2 ping 50000 ------- 1 0.0 5.0 -1 9
- 0.932 2 3 ping 50000 ------- 1 0.0 5.0 -1 4
r 0.9332 1 2 ping 50000 ------- 1 0.0 5.0 -1 9
+ 0.9332 2 3 ping 50000 ------- 1 0.0 5.0 -1 9
r 0.942 2 3 ping 50000 ------- 1 0.0 5.0 -1 2
+ 0.942 3 4 ping 50000 ------- 1 0.0 5.0 -1 2
- 0.942 3 4 ping 50000 ------- 1 0.0 5.0 -1 2
r 0.952 3 4 ping 50000 ------- 1 0.0 5.0 -1 0
+ 0.952 4 5 ping 50000 ------- 1 0.0 5.0 -1 0
- 0.952 4 5 ping 50000 ------- 1 0.0 5.0 -1 0
r 1.002 4 5 ping 50000 ------- 1 0.0 5.0 -1 0
+ 1.002 5 4 ping 30000 ------- 2 5.0 0.0 -1 10
- 1.002 5 4 ping 30000 ------- 2 5.0 0.0 -1 10
r 1.036 5 4 ping 30000 ------- 2 5.0 0.0 -1 10
+ 1.036 4 3 ping 30000 ------- 2 5.0 0.0 -1 10
- 1.094 4 3 ping 30000 ------- 2 5.0 0.0 -1 10
r 1.104 4 3 ping 30000 ------- 2 5.0 0.0 -1 7
+ 1.104 3 2 ping 30000 ------- 2 5.0 0.0 -1 7
- 1.104 3 2 ping 30000 ------- 2 5.0 0.0 -1 7
r 1.114 3 2 ping 30000 ------- 2 5.0 0.0 -1 5
+ 1.114 2 1 ping 30000 ------- 2 5.0 0.0 -1 5
- 1.114 2 1 ping 30000 ------- 2 5.0 0.0 -1 5
r 1.1288 2 1 ping 30000 ------- 2 5.0 0.0 -1 5
+ 1.1288 1 0 ping 30000 ------- 2 5.0 0.0 -1 5
- 1.1288 1 0 ping 30000 ------- 2 5.0 0.0 -1 5
r 1.1412 1 0 ping 30000 ------- 2 5.0 0.0 -1 5
+ 1.1412 0 1 ping 50000 ------- 1 0.0 5.0 -1 11
- 1.1412 0 1 ping 50000 ------- 1 0.0 5.0 -1 11
r 1.1552 0 1 ping 50000 ------- 1 0.0 5.0 -1 11
+ 1.1552 1 2 ping 50000 ------- 1 0.0 5.0 -1 11
- 1.1552 1 2 ping 50000 ------- 1 0.0 5.0 -1 11
r 1.1732 1 2 ping 50000 ------- 1 0.0 5.0 -1 11
+ 1.1732 2 3 ping 50000 ------- 1 0.0 5.0 -1 11
- 1.332 2 3 ping 50000 ------- 1 0.0 5.0 -1 6
r 1.342 2 3 ping 50000 ------- 1 0.0 5.0 -1 4
+ 1.342 3 4 ping 50000 ------- 1 0.0 5.0 -1 4
- 1.342 3 4 ping 50000 ------- 1 0.0 5.0 -1 4
r 1.344 4 3 ping 30000 ------- 2 5.0 0.0 -1 10
+ 1.344 3 2 ping 30000 ------- 2 5.0 0.0 -1 10
- 1.344 3 2 ping 30000 ------- 2 5.0 0.0 -1 10
r 1.352 3 4 ping 50000 ------- 1 0.0 5.0 -1 2
+ 1.352 4 5 ping 50000 ------- 1 0.0 5.0 -1 2
- 1.352 4 5 ping 50000 ------- 1 0.0 5.0 -1 2
r 1.354 3 2 ping 30000 ------- 2 5.0 0.0 -1 7
+ 1.354 2 1 ping 30000 ------- 2 5.0 0.0 -1 7
- 1.354 2 1 ping 30000 ------- 2 5.0 0.0 -1 7
r 1.3688 2 1 ping 30000 ------- 2 5.0 0.0 -1 7
+ 1.3688 1 0 ping 30000 ------- 2 5.0 0.0 -1 7
- 1.3688 1 0 ping 30000 ------- 2 5.0 0.0 -1 7
r 1.3812 1 0 ping 30000 ------- 2 5.0 0.0 -1 7
+ 1.3812 0 1 ping 50000 ------- 1 0.0 5.0 -1 12
- 1.3812 0 1 ping 50000 ------- 1 0.0 5.0 -1 12
r 1.3952 0 1 ping 50000 ------- 1 0.0 5.0 -1 12
+ 1.3952 1 2 ping 50000 ------- 1 0.0 5.0 -1 12
- 1.3952 1 2 ping 50000 ------- 1 0.0 5.0 -1 12
r 1.402 4 5 ping 50000 ------- 1 0.0 5.0 -1 2
+ 1.402 5 4 ping 30000 ------- 2 5.0 0.0 -1 13
- 1.402 5 4 ping 30000 ------- 2 5.0 0.0 -1 13
r 1.4132 1 2 ping 50000 ------- 1 0.0 5.0 -1 12
+ 1.4132 2 3 ping 50000 ------- 1 0.0 5.0 -1 12
r 1.436 5 4 ping 30000 ------- 2 5.0 0.0 -1 13
+ 1.436 4 3 ping 30000 ------- 2 5.0 0.0 -1 13
- 1.436 4 3 ping 30000 ------- 2 5.0 0.0 -1 13
r 1.594 3 2 ping 30000 ------- 2 5.0 0.0 -1 10
+ 1.594 2 1 ping 30000 ------- 2 5.0 0.0 -1 10
- 1.594 2 1 ping 30000 ------- 2 5.0 0.0 -1 10
r 1.6088 2 1 ping 30000 ------- 2 5.0 0.0 -1 10
+ 1.6088 1 0 ping 30000 ------- 2 5.0 0.0 -1 10
- 1.6088 1 0 ping 30000 ------- 2 5.0 0.0 -1 10
r 1.6212 1 0 ping 30000 ------- 2 5.0 0.0 -1 10
r 1.686 4 3 ping 30000 ------- 2 5.0 0.0 -1 13
+ 1.686 3 2 ping 30000 ------- 2 5.0 0.0 -1 13
- 1.686 3 2 ping 30000 ------- 2 5.0 0.0 -1 13
- 1.732 2 3 ping 50000 ------- 1 0.0 5.0 -1 8
r 1.742 2 3 ping 50000 ------- 1 0.0 5.0 -1 6
+ 1.742 3 4 ping 50000 ------- 1 0.0 5.0 -1 6
- 1.742 3 4 ping 50000 ------- 1 0.0 5.0 -1 6
r 1.752 3 4 ping 50000 ------- 1 0.0 5.0 -1 4
+ 1.752 4 5 ping 50000 ------- 1 0.0 5.0 -1 4
- 1.752 4 5 ping 50000 ------- 1 0.0 5.0 -1 4
r 1.802 4 5 ping 50000 ------- 1 0.0 5.0 -1 4
+ 1.802 5 4 ping 30000 ------- 2 5.0 0.0 -1 14
- 1.802 5 4 ping 30000 ------- 2 5.0 0.0 -1 14
r 1.836 5 4 ping 30000 ------- 2 5.0 0.0 -1 14
+ 1.836 4 3 ping 30000 ------- 2 5.0 0.0 -1 14
- 1.836 4 3 ping 30000 ------- 2 5.0 0.0 -1 14
r 1.936 3 2 ping 30000 ------- 2 5.0 0.0 -1 13
+ 1.936 2 1 ping 30000 ------- 2 5.0 0.0 -1 13
- 1.936 2 1 ping 30000 ------- 2 5.0 0.0 -1 13
r 1.9508 2 1 ping 30000 ------- 2 5.0 0.0 -1 13
+ 1.9508 1 0 ping 30000 ------- 2 5.0 0.0 -1 13
- 1.9508 1 0 ping 30000 ------- 2 5.0 0.0 -1 13
r 1.9632 1 0 ping 30000 ------- 2 5.0 0.0 -1 13
r 2.086 4 3 ping 30000 ------- 2 5.0 0.0 -1 14
+ 2.086 3 2 ping 30000 ------- 2 5.0 0.0 -1 14
- 2.086 3 2 ping 30000 ------- 2 5.0 0.0 -1 14
- 2.132 2 3 ping 50000 ------- 1 0.0 5.0 -1 9
r 2.142 2 3 ping 50000 ------- 1 0.0 5.0 -1 8
+ 2.142 3 4 ping 50000 ------- 1 0.0 5.0 -1 8
- 2.142 3 4 ping 50000 ------- 1 0.0 5.0 -1 8
r 2.152 3 4 ping 50000 ------- 1 0.0 5.0 -1 6
+ 2.152 4 5 ping 50000 ------- 1 0.0 5.0 -1 6
- 2.152 4 5 ping 50000 ------- 1 0.0 5.0 -1 6
r 2.202 4 5 ping 50000 ------- 1 0.0 5.0 -1 6
+ 2.202 5 4 ping 30000 ------- 2 5.0 0.0 -1 15
- 2.202 5 4 ping 30000 ------- 2 5.0 0.0 -1 15
r 2.236 5 4 ping 30000 ------- 2 5.0 0.0 -1 15
+ 2.236 4 3 ping 30000 ------- 2 5.0 0.0 -1 15
- 2.236 4 3 ping 30000 ------- 2 5.0 0.0 -1 15
r 2.336 3 2 ping 30000 ------- 2 5.0 0.0 -1 14
+ 2.336 2 1 ping 30000 ------- 2 5.0 0.0 -1 14
- 2.336 2 1 ping 30000 ------- 2 5.0 0.0 -1 14
r 2.3508 2 1 ping 30000 ------- 2 5.0 0.0 -1 14
+ 2.3508 1 0 ping 30000 ------- 2 5.0 0.0 -1 14
- 2.3508 1 0 ping 30000 ------- 2 5.0 0.0 -1 14
r 2.3632 1 0 ping 30000 ------- 2 5.0 0.0 -1 14
r 2.486 4 3 ping 30000 ------- 2 5.0 0.0 -1 15
+ 2.486 3 2 ping 30000 ------- 2 5.0 0.0 -1 15
- 2.486 3 2 ping 30000 ------- 2 5.0 0.0 -1 15
- 2.532 2 3 ping 50000 ------- 1 0.0 5.0 -1 11
r 2.542 2 3 ping 50000 ------- 1 0.0 5.0 -1 9
+ 2.542 3 4 ping 50000 ------- 1 0.0 5.0 -1 9
- 2.542 3 4 ping 50000 ------- 1 0.0 5.0 -1 9
r 2.552 3 4 ping 50000 ------- 1 0.0 5.0 -1 8
+ 2.552 4 5 ping 50000 ------- 1 0.0 5.0 -1 8
- 2.552 4 5 ping 50000 ------- 1 0.0 5.0 -1 8
r 2.602 4 5 ping 50000 ------- 1 0.0 5.0 -1 8
r 2.736 3 2 ping 30000 ------- 2 5.0 0.0 -1 15
+ 2.736 2 1 ping 30000 ------- 2 5.0 0.0 -1 15
- 2.736 2 1 ping 30000 ------- 2 5.0 0.0 -1 15
r 2.7508 2 1 ping 30000 ------- 2 5.0 0.0 -1 15
+ 2.7508 1 0 ping 30000 ------- 2 5.0 0.0 -1 15
- 2.7508 1 0 ping 30000 ------- 2 5.0 0.0 -1 15
r 2.7632 1 0 ping 30000 ------- 2 5.0 0.0 -1 15
- 2.932 2 3 ping 50000 ------- 1 0.0 5.0 -1 12
r 2.942 2 3 ping 50000 ------- 1 0.0 5.0 -1 11
+ 2.942 3 4 ping 50000 ------- 1 0.0 5.0 -1 11
- 2.942 3 4 ping 50000 ------- 1 0.0 5.0 -1 11
r 2.952 3 4 ping 50000 ------- 1 0.0 5.0 -1 9
+ 2.952 4 5 ping 50000 ------- 1 0.0 5.0 -1 9
- 2.952 4 5 ping 50000 ------- 1 0.0 5.0 -1 9
r 3.002 4 5 ping 50000 ------- 1 0.0 5.0 -1 9
r 3.342 2 3 ping 50000 ------- 1 0.0 5.0 -1 12
+ 3.342 3 4 ping 50000 ------- 1 0.0 5.0 -1 12
- 3.342 3 4 ping 50000 ------- 1 0.0 5.0 -1 12
r 3.352 3 4 ping 50000 ------- 1 0.0 5.0 -1 11
+ 3.352 4 5 ping 50000 ------- 1 0.0 5.0 -1 11
- 3.352 4 5 ping 50000 ------- 1 0.0 5.0 -1 11
r 3.402 4 5 ping 50000 ------- 1 0.0 5.0 -1 11
r 3.752 3 4 ping 50000 ------- 1 0.0 5.0 -1 12
+ 3.752 4 5 ping 50000 ------- 1 0.0 5.0 -1 12
- 3.752 4 5 ping 50000 ------- 1 0.0 5.0 -1 12
r 3.802 4 5 ping 50000 ------- 1 0.0 5.0 -1 12
