V -t * -v 1.0a5 -a 0
A -t * -n 1 -p 0 -o 0x7fffffff -c 30 -a 1
A -t * -h 1 -m 1073741823 -s 0
n -t * -a 0 -s 0 -S UP -v circle -c black -i black
n -t * -a 1 -s 1 -S UP -v circle -c black -i black
n -t * -a 2 -s 2 -S UP -v circle -c black -i black
n -t * -a 3 -s 3 -S UP -v circle -c black -i black
X -t * -n 4 -r 10Mb -D 40ms -o left
L -t * -s 4 -d 0 -o up
L -t * -s 4 -d 1 -o down
L -t * -s 4 -d 2 -o up
L -t * -s 4 -d 3 -o down
h -t 1 -s 0 -d 4 -p tcp -e 40 -c 0 -i 0 -a 0 -x {0.0 3.0 0 ------- null}
h -t 1 -s 2 -d 4 -p tcp -e 40 -c 0 -i 1 -a 0 -x {2.0 1.0 0 ------- null}
+ -t 1.04 -s 0 -d 4 -p tcp -e 40 -c 0 -i 0 -a 0 -x {0.0 3.0 0 ------- null}
- -t 1.04 -s 0 -d 4 -p tcp -e 40 -c 0 -i 0 -a 0 -x {0.0 3.0 0 ------- null}
h -t 1.04 -s 0 -d 4 -p tcp -e 40 -c 0 -i 0 -a 0 -x {0.0 3.0 -1 ------- null}
+ -t 1.04 -s 2 -d 4 -p tcp -e 40 -c 0 -i 1 -a 0 -x {2.0 1.0 0 ------- null}
- -t 1.04 -s 2 -d 4 -p tcp -e 40 -c 0 -i 1 -a 0 -x {2.0 1.0 0 ------- null}
h -t 1.04 -s 2 -d 4 -p tcp -e 40 -c 0 -i 1 -a 0 -x {2.0 1.0 -1 ------- null}
r -t 1.080072 -s 4 -d 3 -p tcp -e 40 -c 0 -i 0 -a 0 -x {0.0 3.0 0 ------- null}
h -t 1.080072 -s 3 -d 4 -p ack -e 40 -c 0 -i 2 -a 0 -x {3.0 0.0 0 ------- null}
r -t 1.0801368 -s 4 -d 1 -p tcp -e 40 -c 0 -i 1 -a 0 -x {2.0 1.0 0 ------- null}
h -t 1.0801368 -s 1 -d 4 -p ack -e 40 -c 0 -i 3 -a 0 -x {1.0 2.0 0 ------- null}
+ -t 1.120072 -s 3 -d 4 -p ack -e 40 -c 0 -i 2 -a 0 -x {3.0 0.0 0 ------- null}
- -t 1.120072 -s 3 -d 4 -p ack -e 40 -c 0 -i 2 -a 0 -x {3.0 0.0 0 ------- null}
h -t 1.120072 -s 3 -d 4 -p ack -e 40 -c 0 -i 2 -a 0 -x {3.0 0.0 -1 ------- null}
+ -t 1.1201368 -s 1 -d 4 -p ack -e 40 -c 0 -i 3 -a 0 -x {1.0 2.0 0 ------- null}
- -t 1.1201368 -s 1 -d 4 -p ack -e 40 -c 0 -i 3 -a 0 -x {1.0 2.0 0 ------- null}
h -t 1.1201368 -s 1 -d 4 -p ack -e 40 -c 0 -i 3 -a 0 -x {1.0 2.0 -1 ------- null}
r -t 1.1601272 -s 4 -d 0 -p ack -e 40 -c 0 -i 2 -a 0 -x {3.0 0.0 0 ------- null}
h -t 1.1601272 -s 0 -d 4 -p tcp -e 15040 -c 0 -i 4 -a 0 -x {0.0 3.0 1 ------- null}
h -t 1.1601272 -s 0 -d 4 -p tcp -e 15040 -c 0 -i 5 -a 0 -x {0.0 3.0 2 ------- null}
r -t 1.160192 -s 4 -d 2 -p ack -e 40 -c 0 -i 3 -a 0 -x {1.0 2.0 0 ------- null}
h -t 1.160192 -s 2 -d 4 -p tcp -e 15040 -c 0 -i 6 -a 0 -x {2.0 1.0 1 ------- null}
h -t 1.160192 -s 2 -d 4 -p tcp -e 15040 -c 0 -i 7 -a 0 -x {2.0 1.0 2 ------- null}
+ -t 1.2001272 -s 0 -d 4 -p tcp -e 15040 -c 0 -i 4 -a 0 -x {0.0 3.0 1 ------- null}
- -t 1.2001272 -s 0 -d 4 -p tcp -e 15040 -c 0 -i 4 -a 0 -x {0.0 3.0 1 ------- null}
h -t 1.2001272 -s 0 -d 4 -p tcp -e 15040 -c 0 -i 4 -a 0 -x {0.0 3.0 -1 ------- null}
+ -t 1.2001272 -s 0 -d 4 -p tcp -e 15040 -c 0 -i 5 -a 0 -x {0.0 3.0 2 ------- null}
+ -t 1.200192 -s 2 -d 4 -p tcp -e 15040 -c 0 -i 6 -a 0 -x {2.0 1.0 1 ------- null}
- -t 1.200192 -s 2 -d 4 -p tcp -e 15040 -c 0 -i 6 -a 0 -x {2.0 1.0 1 ------- null}
h -t 1.200192 -s 2 -d 4 -p tcp -e 15040 -c 0 -i 6 -a 0 -x {2.0 1.0 -1 ------- null}
+ -t 1.200192 -s 2 -d 4 -p tcp -e 15040 -c 0 -i 7 -a 0 -x {2.0 1.0 2 ------- null}
- -t 1.21218 -s 0 -d 4 -p tcp -e 15040 -c 0 -i 5 -a 0 -x {0.0 3.0 2 ------- null}
h -t 1.21218 -s 0 -d 4 -p tcp -e 15040 -c 0 -i 5 -a 0 -x {0.0 3.0 -1 ------- null}
- -t 1.2243216 -s 2 -d 4 -p tcp -e 15040 -c 0 -i 7 -a 0 -x {2.0 1.0 2 ------- null}
h -t 1.2243216 -s 2 -d 4 -p tcp -e 15040 -c 0 -i 7 -a 0 -x {2.0 1.0 -1 ------- null}
r -t 1.2521744 -s 4 -d 3 -p tcp -e 15040 -c 0 -i 4 -a 0 -x {0.0 3.0 1 ------- null}
h -t 1.2521744 -s 3 -d 4 -p ack -e 40 -c 0 -i 8 -a 0 -x {3.0 0.0 1 ------- null}
r -t 1.264316 -s 4 -d 1 -p tcp -e 15040 -c 0 -i 6 -a 0 -x {2.0 1.0 1 ------- null}
h -t 1.264316 -s 1 -d 4 -p ack -e 40 -c 0 -i 9 -a 0 -x {1.0 2.0 1 ------- null}
r -t 1.2764408 -s 4 -d 1 -p tcp -e 15040 -c 0 -i 7 -a 0 -x {2.0 1.0 2 ------- null}
h -t 1.2764408 -s 1 -d 4 -p ack -e 40 -c 0 -i 10 -a 0 -x {1.0 2.0 2 ------- null}
r -t 1.2884976 -s 4 -d 3 -p tcp -e 15040 -c 0 -i 5 -a 0 -x {0.0 3.0 2 ------- null}
h -t 1.2884976 -s 3 -d 4 -p ack -e 40 -c 0 -i 11 -a 0 -x {3.0 0.0 2 ------- null}
+ -t 1.2921744 -s 3 -d 4 -p ack -e 40 -c 0 -i 8 -a 0 -x {3.0 0.0 1 ------- null}
- -t 1.2921744 -s 3 -d 4 -p ack -e 40 -c 0 -i 8 -a 0 -x {3.0 0.0 1 ------- null}
h -t 1.2921744 -s 3 -d 4 -p ack -e 40 -c 0 -i 8 -a 0 -x {3.0 0.0 -1 ------- null}
+ -t 1.304316 -s 1 -d 4 -p ack -e 40 -c 0 -i 9 -a 0 -x {1.0 2.0 1 ------- null}
- -t 1.304316 -s 1 -d 4 -p ack -e 40 -c 0 -i 9 -a 0 -x {1.0 2.0 1 ------- null}
h -t 1.304316 -s 1 -d 4 -p ack -e 40 -c 0 -i 9 -a 0 -x {1.0 2.0 -1 ------- null}
+ -t 1.3164408 -s 1 -d 4 -p ack -e 40 -c 0 -i 10 -a 0 -x {1.0 2.0 2 ------- null}
- -t 1.3164408 -s 1 -d 4 -p ack -e 40 -c 0 -i 10 -a 0 -x {1.0 2.0 2 ------- null}
h -t 1.3164408 -s 1 -d 4 -p ack -e 40 -c 0 -i 10 -a 0 -x {1.0 2.0 -1 ------- null}
+ -t 1.3284976 -s 3 -d 4 -p ack -e 40 -c 0 -i 11 -a 0 -x {3.0 0.0 2 ------- null}
- -t 1.3284976 -s 3 -d 4 -p ack -e 40 -c 0 -i 11 -a 0 -x {3.0 0.0 2 ------- null}
h -t 1.3284976 -s 3 -d 4 -p ack -e 40 -c 0 -i 11 -a 0 -x {3.0 0.0 -1 ------- null}
r -t 1.3322296 -s 4 -d 0 -p ack -e 40 -c 0 -i 8 -a 0 -x {3.0 0.0 1 ------- null}
h -t 1.3322296 -s 0 -d 4 -p tcp -e 15040 -c 0 -i 12 -a 0 -x {0.0 3.0 3 ------- null}
h -t 1.3322296 -s 0 -d 4 -p tcp -e 15040 -c 0 -i 13 -a 0 -x {0.0 3.0 4 ------- null}
r -t 1.3443712 -s 4 -d 2 -p ack -e 40 -c 0 -i 9 -a 0 -x {1.0 2.0 1 ------- null}
h -t 1.3443712 -s 2 -d 4 -p tcp -e 15040 -c 0 -i 14 -a 0 -x {2.0 1.0 3 ------- null}
h -t 1.3443712 -s 2 -d 4 -p tcp -e 15040 -c 0 -i 15 -a 0 -x {2.0 1.0 4 ------- null}
r -t 1.356496 -s 4 -d 2 -p ack -e 40 -c 0 -i 10 -a 0 -x {1.0 2.0 2 ------- null}
h -t 1.356496 -s 2 -d 4 -p tcp -e 15040 -c 0 -i 16 -a 0 -x {2.0 1.0 5 ------- null}
h -t 1.356496 -s 2 -d 4 -p tcp -e 15040 -c 0 -i 17 -a 0 -x {2.0 1.0 6 ------- null}
r -t 1.3685528 -s 4 -d 0 -p ack -e 40 -c 0 -i 11 -a 0 -x {3.0 0.0 2 ------- null}
h -t 1.3685528 -s 0 -d 4 -p tcp -e 15040 -c 0 -i 18 -a 0 -x {0.0 3.0 5 ------- null}
h -t 1.3685528 -s 0 -d 4 -p tcp -e 15040 -c 0 -i 19 -a 0 -x {0.0 3.0 6 ------- null}
+ -t 1.3722296 -s 0 -d 4 -p tcp -e 15040 -c 0 -i 12 -a 0 -x {0.0 3.0 3 ------- null}
- -t 1.3722296 -s 0 -d 4 -p tcp -e 15040 -c 0 -i 12 -a 0 -x {0.0 3.0 3 ------- null}
h -t 1.3722296 -s 0 -d 4 -p tcp -e 15040 -c 0 -i 12 -a 0 -x {0.0 3.0 -1 ------- null}
+ -t 1.3722296 -s 0 -d 4 -p tcp -e 15040 -c 0 -i 13 -a 0 -x {0.0 3.0 4 ------- null}
- -t 1.3842824 -s 0 -d 4 -p tcp -e 15040 -c 0 -i 13 -a 0 -x {0.0 3.0 4 ------- null}
h -t 1.3842824 -s 0 -d 4 -p tcp -e 15040 -c 0 -i 13 -a 0 -x {0.0 3.0 -1 ------- null}
+ -t 1.3843712 -s 2 -d 4 -p tcp -e 15040 -c 0 -i 14 -a 0 -x {2.0 1.0 3 ------- null}
- -t 1.3843712 -s 2 -d 4 -p tcp -e 15040 -c 0 -i 14 -a 0 -x {2.0 1.0 3 ------- null}
h -t 1.3843712 -s 2 -d 4 -p tcp -e 15040 -c 0 -i 14 -a 0 -x {2.0 1.0 -1 ------- null}
+ -t 1.3843712 -s 2 -d 4 -p tcp -e 15040 -c 0 -i 15 -a 0 -x {2.0 1.0 4 ------- null}
+ -t 1.396496 -s 2 -d 4 -p tcp -e 15040 -c 0 -i 16 -a 0 -x {2.0 1.0 5 ------- null}
+ -t 1.396496 -s 2 -d 4 -p tcp -e 15040 -c 0 -i 17 -a 0 -x {2.0 1.0 6 ------- null}
- -t 1.408392 -s 2 -d 4 -p tcp -e 15040 -c 0 -i 15 -a 0 -x {2.0 1.0 4 ------- null}
h -t 1.408392 -s 2 -d 4 -p tcp -e 15040 -c 0 -i 15 -a 0 -x {2.0 1.0 -1 ------- null}
+ -t 1.4085528 -s 0 -d 4 -p tcp -e 15040 -c 0 -i 18 -a 0 -x {0.0 3.0 5 ------- null}
- -t 1.4085528 -s 0 -d 4 -p tcp -e 15040 -c 0 -i 18 -a 0 -x {0.0 3.0 5 ------- null}
h -t 1.4085528 -s 0 -d 4 -p tcp -e 15040 -c 0 -i 18 -a 0 -x {0.0 3.0 -1 ------- null}
+ -t 1.4085528 -s 0 -d 4 -p tcp -e 15040 -c 0 -i 19 -a 0 -x {0.0 3.0 6 ------- null}
- -t 1.4204448 -s 2 -d 4 -p tcp -e 15040 -c 0 -i 16 -a 0 -x {2.0 1.0 5 ------- null}
h -t 1.4204448 -s 2 -d 4 -p tcp -e 15040 -c 0 -i 16 -a 0 -x {2.0 1.0 -1 ------- null}
r -t 1.4242768 -s 4 -d 3 -p tcp -e 15040 -c 0 -i 12 -a 0 -x {0.0 3.0 3 ------- null}
h -t 1.4242768 -s 3 -d 4 -p ack -e 40 -c 0 -i 20 -a 0 -x {3.0 0.0 3 ------- null}
- -t 1.4325352 -s 0 -d 4 -p tcp -e 15040 -c 0 -i 19 -a 0 -x {0.0 3.0 6 ------- null}
h -t 1.4325352 -s 0 -d 4 -p tcp -e 15040 -c 0 -i 19 -a 0 -x {0.0 3.0 -1 ------- null}
r -t 1.4363296 -s 4 -d 3 -p tcp -e 15040 -c 0 -i 13 -a 0 -x {0.0 3.0 4 ------- null}
h -t 1.4363296 -s 3 -d 4 -p ack -e 40 -c 0 -i 21 -a 0 -x {3.0 0.0 4 ------- null}
r -t 1.4483864 -s 4 -d 1 -p tcp -e 15040 -c 0 -i 14 -a 0 -x {2.0 1.0 3 ------- null}
h -t 1.4483864 -s 1 -d 4 -p ack -e 40 -c 0 -i 22 -a 0 -x {1.0 2.0 3 ------- null}
- -t 1.4567168 -s 2 -d 4 -p tcp -e 15040 -c 0 -i 17 -a 0 -x {2.0 1.0 6 ------- null}
h -t 1.4567168 -s 2 -d 4 -p tcp -e 15040 -c 0 -i 17 -a 0 -x {2.0 1.0 -1 ------- null}
r -t 1.4604392 -s 4 -d 1 -p tcp -e 15040 -c 0 -i 15 -a 0 -x {2.0 1.0 4 ------- null}
h -t 1.4604392 -s 1 -d 4 -p ack -e 40 -c 0 -i 23 -a 0 -x {1.0 2.0 4 ------- null}
+ -t 1.4642768 -s 3 -d 4 -p ack -e 40 -c 0 -i 20 -a 0 -x {3.0 0.0 3 ------- null}
- -t 1.4642768 -s 3 -d 4 -p ack -e 40 -c 0 -i 20 -a 0 -x {3.0 0.0 3 ------- null}
h -t 1.4642768 -s 3 -d 4 -p ack -e 40 -c 0 -i 20 -a 0 -x {3.0 0.0 -1 ------- null}
r -t 1.4725296 -s 4 -d 3 -p tcp -e 15040 -c 0 -i 18 -a 0 -x {0.0 3.0 5 ------- null}
h -t 1.4725296 -s 3 -d 4 -p ack -e 40 -c 0 -i 24 -a 0 -x {3.0 0.0 5 ------- null}
+ -t 1.4763296 -s 3 -d 4 -p ack -e 40 -c 0 -i 21 -a 0 -x {3.0 0.0 4 ------- null}
- -t 1.4763296 -s 3 -d 4 -p ack -e 40 -c 0 -i 21 -a 0 -x {3.0 0.0 4 ------- null}
h -t 1.4763296 -s 3 -d 4 -p ack -e 40 -c 0 -i 21 -a 0 -x {3.0 0.0 -1 ------- null}
r -t 1.4846544 -s 4 -d 3 -p tcp -e 15040 -c 0 -i 19 -a 0 -x {0.0 3.0 6 ------- null}
h -t 1.4846544 -s 3 -d 4 -p ack -e 40 -c 0 -i 25 -a 0 -x {3.0 0.0 6 ------- null}
+ -t 1.4883864 -s 1 -d 4 -p ack -e 40 -c 0 -i 22 -a 0 -x {1.0 2.0 3 ------- null}
- -t 1.4883864 -s 1 -d 4 -p ack -e 40 -c 0 -i 22 -a 0 -x {1.0 2.0 3 ------- null}
h -t 1.4883864 -s 1 -d 4 -p ack -e 40 -c 0 -i 22 -a 0 -x {1.0 2.0 -1 ------- null}
r -t 1.4967112 -s 4 -d 1 -p tcp -e 15040 -c 0 -i 16 -a 0 -x {2.0 1.0 5 ------- null}
h -t 1.4967112 -s 1 -d 4 -p ack -e 40 -c 0 -i 26 -a 0 -x {1.0 2.0 5 ------- null}
+ -t 1.5004392 -s 1 -d 4 -p ack -e 40 -c 0 -i 23 -a 0 -x {1.0 2.0 4 ------- null}
- -t 1.5004392 -s 1 -d 4 -p ack -e 40 -c 0 -i 23 -a 0 -x {1.0 2.0 4 ------- null}
h -t 1.5004392 -s 1 -d 4 -p ack -e 40 -c 0 -i 23 -a 0 -x {1.0 2.0 -1 ------- null}
r -t 1.508764 -s 4 -d 1 -p tcp -e 15040 -c 0 -i 17 -a 0 -x {2.0 1.0 6 ------- null}
h -t 1.508764 -s 1 -d 4 -p ack -e 40 -c 0 -i 27 -a 0 -x {1.0 2.0 6 ------- null}
r -t 1.5088288 -s 4 -d 0 -p ack -e 40 -c 0 -i 20 -a 0 -x {3.0 0.0 3 ------- null}
h -t 1.5088288 -s 0 -d 4 -p tcp -e 15040 -c 0 -i 28 -a 0 -x {0.0 3.0 7 ------- null}
h -t 1.5088288 -s 0 -d 4 -p tcp -e 15040 -c 0 -i 29 -a 0 -x {0.0 3.0 8 ------- null}
+ -t 1.5125296 -s 3 -d 4 -p ack -e 40 -c 0 -i 24 -a 0 -x {3.0 0.0 5 ------- null}
- -t 1.5125296 -s 3 -d 4 -p ack -e 40 -c 0 -i 24 -a 0 -x {3.0 0.0 5 ------- null}
h -t 1.5125296 -s 3 -d 4 -p ack -e 40 -c 0 -i 24 -a 0 -x {3.0 0.0 -1 ------- null}
r -t 1.5163848 -s 4 -d 0 -p ack -e 40 -c 0 -i 21 -a 0 -x {3.0 0.0 4 ------- null}
h -t 1.5163848 -s 0 -d 4 -p tcp -e 15040 -c 0 -i 30 -a 0 -x {0.0 3.0 9 ------- null}
h -t 1.5163848 -s 0 -d 4 -p tcp -e 15040 -c 0 -i 31 -a 0 -x {0.0 3.0 10 ------- null}
+ -t 1.5246544 -s 3 -d 4 -p ack -e 40 -c 0 -i 25 -a 0 -x {3.0 0.0 6 ------- null}
- -t 1.5246544 -s 3 -d 4 -p ack -e 40 -c 0 -i 25 -a 0 -x {3.0 0.0 6 ------- null}
h -t 1.5246544 -s 3 -d 4 -p ack -e 40 -c 0 -i 25 -a 0 -x {3.0 0.0 -1 ------- null}
r -t 1.5284416 -s 4 -d 2 -p ack -e 40 -c 0 -i 22 -a 0 -x {1.0 2.0 3 ------- null}
h -t 1.5284416 -s 2 -d 4 -p tcp -e 15040 -c 0 -i 32 -a 0 -x {2.0 1.0 7 ------- null}
h -t 1.5284416 -s 2 -d 4 -p tcp -e 15040 -c 0 -i 33 -a 0 -x {2.0 1.0 8 ------- null}
+ -t 1.5367112 -s 1 -d 4 -p ack -e 40 -c 0 -i 26 -a 0 -x {1.0 2.0 5 ------- null}
- -t 1.5367112 -s 1 -d 4 -p ack -e 40 -c 0 -i 26 -a 0 -x {1.0 2.0 5 ------- null}
h -t 1.5367112 -s 1 -d 4 -p ack -e 40 -c 0 -i 26 -a 0 -x {1.0 2.0 -1 ------- null}
r -t 1.5404944 -s 4 -d 2 -p ack -e 40 -c 0 -i 23 -a 0 -x {1.0 2.0 4 ------- null}
h -t 1.5404944 -s 2 -d 4 -p tcp -e 15040 -c 0 -i 34 -a 0 -x {2.0 1.0 9 ------- null}
h -t 1.5404944 -s 2 -d 4 -p tcp -e 15040 -c 0 -i 35 -a 0 -x {2.0 1.0 10 ------- null}
+ -t 1.548764 -s 1 -d 4 -p ack -e 40 -c 0 -i 27 -a 0 -x {1.0 2.0 6 ------- null}
- -t 1.548764 -s 1 -d 4 -p ack -e 40 -c 0 -i 27 -a 0 -x {1.0 2.0 6 ------- null}
h -t 1.548764 -s 1 -d 4 -p ack -e 40 -c 0 -i 27 -a 0 -x {1.0 2.0 -1 ------- null}
+ -t 1.5488288 -s 0 -d 4 -p tcp -e 15040 -c 0 -i 28 -a 0 -x {0.0 3.0 7 ------- null}
- -t 1.5488288 -s 0 -d 4 -p tcp -e 15040 -c 0 -i 28 -a 0 -x {0.0 3.0 7 ------- null}
h -t 1.5488288 -s 0 -d 4 -p tcp -e 15040 -c 0 -i 28 -a 0 -x {0.0 3.0 -1 ------- null}
+ -t 1.5488288 -s 0 -d 4 -p tcp -e 15040 -c 0 -i 29 -a 0 -x {0.0 3.0 8 ------- null}
r -t 1.5525848 -s 4 -d 0 -p ack -e 40 -c 0 -i 24 -a 0 -x {3.0 0.0 5 ------- null}
h -t 1.5525848 -s 0 -d 4 -p tcp -e 15040 -c 0 -i 36 -a 0 -x {0.0 3.0 11 ------- null}
h -t 1.5525848 -s 0 -d 4 -p tcp -e 15040 -c 0 -i 37 -a 0 -x {0.0 3.0 12 ------- null}
+ -t 1.5563848 -s 0 -d 4 -p tcp -e 15040 -c 0 -i 30 -a 0 -x {0.0 3.0 9 ------- null}
+ -t 1.5563848 -s 0 -d 4 -p tcp -e 15040 -c 0 -i 31 -a 0 -x {0.0 3.0 10 ------- null}
- -t 1.5608816 -s 0 -d 4 -p tcp -e 15040 -c 0 -i 29 -a 0 -x {0.0 3.0 8 ------- null}
h -t 1.5608816 -s 0 -d 4 -p tcp -e 15040 -c 0 -i 29 -a 0 -x {0.0 3.0 -1 ------- null}
r -t 1.5647096 -s 4 -d 0 -p ack -e 40 -c 0 -i 25 -a 0 -x {3.0 0.0 6 ------- null}
h -t 1.5647096 -s 0 -d 4 -p tcp -e 15040 -c 0 -i 38 -a 0 -x {0.0 3.0 13 ------- null}
h -t 1.5647096 -s 0 -d 4 -p tcp -e 15040 -c 0 -i 39 -a 0 -x {0.0 3.0 14 ------- null}
+ -t 1.5684416 -s 2 -d 4 -p tcp -e 15040 -c 0 -i 32 -a 0 -x {2.0 1.0 7 ------- null}
- -t 1.5684416 -s 2 -d 4 -p tcp -e 15040 -c 0 -i 32 -a 0 -x {2.0 1.0 7 ------- null}
h -t 1.5684416 -s 2 -d 4 -p tcp -e 15040 -c 0 -i 32 -a 0 -x {2.0 1.0 -1 ------- null}
+ -t 1.5684416 -s 2 -d 4 -p tcp -e 15040 -c 0 -i 33 -a 0 -x {2.0 1.0 8 ------- null}
- -t 1.5729344 -s 0 -d 4 -p tcp -e 15040 -c 0 -i 30 -a 0 -x {0.0 3.0 9 ------- null}
h -t 1.5729344 -s 0 -d 4 -p tcp -e 15040 -c 0 -i 30 -a 0 -x {0.0 3.0 -1 ------- null}
r -t 1.5767664 -s 4 -d 2 -p ack -e 40 -c 0 -i 26 -a 0 -x {1.0 2.0 5 ------- null}
h -t 1.5767664 -s 2 -d 4 -p tcp -e 15040 -c 0 -i 40 -a 0 -x {2.0 1.0 11 ------- null}
h -t 1.5767664 -s 2 -d 4 -p tcp -e 15040 -c 0 -i 41 -a 0 -x {2.0 1.0 12 ------- null}
+ -t 1.5804944 -s 2 -d 4 -p tcp -e 15040 -c 0 -i 34 -a 0 -x {2.0 1.0 9 ------- null}
+ -t 1.5804944 -s 2 -d 4 -p tcp -e 15040 -c 0 -i 35 -a 0 -x {2.0 1.0 10 ------- null}
- -t 1.585076 -s 2 -d 4 -p tcp -e 15040 -c 0 -i 33 -a 0 -x {2.0 1.0 8 ------- null}
h -t 1.585076 -s 2 -d 4 -p tcp -e 15040 -c 0 -i 33 -a 0 -x {2.0 1.0 -1 ------- null}
r -t 1.5888192 -s 4 -d 2 -p ack -e 40 -c 0 -i 27 -a 0 -x {1.0 2.0 6 ------- null}
h -t 1.5888192 -s 2 -d 4 -p tcp -e 15040 -c 0 -i 42 -a 0 -x {2.0 1.0 13 ------- null}
h -t 1.5888192 -s 2 -d 4 -p tcp -e 15040 -c 0 -i 43 -a 0 -x {2.0 1.0 14 ------- null}
+ -t 1.5925848 -s 0 -d 4 -p tcp -e 15040 -c 0 -i 36 -a 0 -x {0.0 3.0 11 ------- null}
+ -t 1.5925848 -s 0 -d 4 -p tcp -e 15040 -c 0 -i 37 -a 0 -x {0.0 3.0 12 ------- null}
- -t 1.5971496 -s 2 -d 4 -p tcp -e 15040 -c 0 -i 34 -a 0 -x {2.0 1.0 9 ------- null}
h -t 1.5971496 -s 2 -d 4 -p tcp -e 15040 -c 0 -i 34 -a 0 -x {2.0 1.0 -1 ------- null}
r -t 1.600876 -s 4 -d 3 -p tcp -e 15040 -c 0 -i 28 -a 0 -x {0.0 3.0 7 ------- null}
h -t 1.600876 -s 3 -d 4 -p ack -e 40 -c 0 -i 44 -a 0 -x {3.0 0.0 7 ------- null}
+ -t 1.6047096 -s 0 -d 4 -p tcp -e 15040 -c 0 -i 38 -a 0 -x {0.0 3.0 13 ------- null}
+ -t 1.6047096 -s 0 -d 4 -p tcp -e 15040 -c 0 -i 39 -a 0 -x {0.0 3.0 14 ------- null}
- -t 1.6092744 -s 2 -d 4 -p tcp -e 15040 -c 0 -i 35 -a 0 -x {2.0 1.0 10 ------- null}
h -t 1.6092744 -s 2 -d 4 -p tcp -e 15040 -c 0 -i 35 -a 0 -x {2.0 1.0 -1 ------- null}
r -t 1.6129288 -s 4 -d 3 -p tcp -e 15040 -c 0 -i 29 -a 0 -x {0.0 3.0 8 ------- null}
h -t 1.6129288 -s 3 -d 4 -p ack -e 40 -c 0 -i 45 -a 0 -x {3.0 0.0 8 ------- null}
+ -t 1.6167664 -s 2 -d 4 -p tcp -e 15040 -c 0 -i 40 -a 0 -x {2.0 1.0 11 ------- null}
+ -t 1.6167664 -s 2 -d 4 -p tcp -e 15040 -c 0 -i 41 -a 0 -x {2.0 1.0 12 ------- null}
- -t 1.6215144 -s 2 -d 4 -p tcp -e 15040 -c 0 -i 40 -a 0 -x {2.0 1.0 11 ------- null}
h -t 1.6215144 -s 2 -d 4 -p tcp -e 15040 -c 0 -i 40 -a 0 -x {2.0 1.0 -1 ------- null}
r -t 1.6250704 -s 4 -d 1 -p tcp -e 15040 -c 0 -i 32 -a 0 -x {2.0 1.0 7 ------- null}
h -t 1.6250704 -s 1 -d 4 -p ack -e 40 -c 0 -i 46 -a 0 -x {1.0 2.0 7 ------- null}
+ -t 1.6288192 -s 2 -d 4 -p tcp -e 15040 -c 0 -i 42 -a 0 -x {2.0 1.0 13 ------- null}
+ -t 1.6288192 -s 2 -d 4 -p tcp -e 15040 -c 0 -i 43 -a 0 -x {2.0 1.0 14 ------- null}
- -t 1.6336392 -s 2 -d 4 -p tcp -e 15040 -c 0 -i 41 -a 0 -x {2.0 1.0 12 ------- null}
h -t 1.6336392 -s 2 -d 4 -p tcp -e 15040 -c 0 -i 41 -a 0 -x {2.0 1.0 -1 ------- null}
r -t 1.637144 -s 4 -d 1 -p tcp -e 15040 -c 0 -i 33 -a 0 -x {2.0 1.0 8 ------- null}
h -t 1.637144 -s 1 -d 4 -p ack -e 40 -c 0 -i 47 -a 0 -x {1.0 2.0 8 ------- null}
+ -t 1.640876 -s 3 -d 4 -p ack -e 40 -c 0 -i 44 -a 0 -x {3.0 0.0 7 ------- null}
- -t 1.640876 -s 3 -d 4 -p ack -e 40 -c 0 -i 44 -a 0 -x {3.0 0.0 7 ------- null}
h -t 1.640876 -s 3 -d 4 -p ack -e 40 -c 0 -i 44 -a 0 -x {3.0 0.0 -1 ------- null}
- -t 1.645764 -s 2 -d 4 -p tcp -e 15040 -c 0 -i 42 -a 0 -x {2.0 1.0 13 ------- null}
h -t 1.645764 -s 2 -d 4 -p tcp -e 15040 -c 0 -i 42 -a 0 -x {2.0 1.0 -1 ------- null}
r -t 1.6492688 -s 4 -d 1 -p tcp -e 15040 -c 0 -i 34 -a 0 -x {2.0 1.0 9 ------- null}
h -t 1.6492688 -s 1 -d 4 -p ack -e 40 -c 0 -i 48 -a 0 -x {1.0 2.0 9 ------- null}
+ -t 1.6529288 -s 3 -d 4 -p ack -e 40 -c 0 -i 45 -a 0 -x {3.0 0.0 8 ------- null}
- -t 1.6578376 -s 2 -d 4 -p tcp -e 15040 -c 0 -i 43 -a 0 -x {2.0 1.0 14 ------- null}
h -t 1.6578376 -s 2 -d 4 -p tcp -e 15040 -c 0 -i 43 -a 0 -x {2.0 1.0 -1 ------- null}
r -t 1.6615088 -s 4 -d 1 -p tcp -e 15040 -c 0 -i 35 -a 0 -x {2.0 1.0 10 ------- null}
h -t 1.6615088 -s 1 -d 4 -p ack -e 40 -c 0 -i 49 -a 0 -x {1.0 2.0 10 ------- null}
+ -t 1.6650704 -s 1 -d 4 -p ack -e 40 -c 0 -i 46 -a 0 -x {1.0 2.0 7 ------- null}
- -t 1.6650704 -s 1 -d 4 -p ack -e 40 -c 0 -i 46 -a 0 -x {1.0 2.0 7 ------- null}
h -t 1.6650704 -s 1 -d 4 -p ack -e 40 -c 0 -i 46 -a 0 -x {1.0 2.0 -1 ------- null}
- -t 1.670876 -s 3 -d 4 -p ack -e 40 -c 0 -i 45 -a 0 -x {3.0 0.0 8 ------- null}
h -t 1.670876 -s 3 -d 4 -p ack -e 40 -c 0 -i 45 -a 0 -x {3.0 0.0 -1 ------- null}
r -t 1.6736336 -s 4 -d 1 -p tcp -e 15040 -c 0 -i 40 -a 0 -x {2.0 1.0 11 ------- null}
h -t 1.6736336 -s 1 -d 4 -p ack -e 40 -c 0 -i 50 -a 0 -x {1.0 2.0 11 ------- null}
+ -t 1.677144 -s 1 -d 4 -p ack -e 40 -c 0 -i 47 -a 0 -x {1.0 2.0 8 ------- null}
- -t 1.677144 -s 1 -d 4 -p ack -e 40 -c 0 -i 47 -a 0 -x {1.0 2.0 8 ------- null}
h -t 1.677144 -s 1 -d 4 -p ack -e 40 -c 0 -i 47 -a 0 -x {1.0 2.0 -1 ------- null}
r -t 1.6857584 -s 4 -d 1 -p tcp -e 15040 -c 0 -i 41 -a 0 -x {2.0 1.0 12 ------- null}
h -t 1.6857584 -s 1 -d 4 -p ack -e 40 -c 0 -i 51 -a 0 -x {1.0 2.0 12 ------- null}
+ -t 1.6892688 -s 1 -d 4 -p ack -e 40 -c 0 -i 48 -a 0 -x {1.0 2.0 9 ------- null}
- -t 1.6892688 -s 1 -d 4 -p ack -e 40 -c 0 -i 48 -a 0 -x {1.0 2.0 9 ------- null}
h -t 1.6892688 -s 1 -d 4 -p ack -e 40 -c 0 -i 48 -a 0 -x {1.0 2.0 -1 ------- null}
- -t 1.6903872 -s 0 -d 4 -p tcp -e 15040 -c 0 -i 31 -a 0 -x {0.0 3.0 10 ------- null}
h -t 1.6903872 -s 0 -d 4 -p tcp -e 15040 -c 0 -i 31 -a 0 -x {0.0 3.0 -1 ------- null}
r -t 1.697832 -s 4 -d 1 -p tcp -e 15040 -c 0 -i 42 -a 0 -x {2.0 1.0 13 ------- null}
h -t 1.697832 -s 1 -d 4 -p ack -e 40 -c 0 -i 52 -a 0 -x {1.0 2.0 13 ------- null}
+ -t 1.7015088 -s 1 -d 4 -p ack -e 40 -c 0 -i 49 -a 0 -x {1.0 2.0 10 ------- null}
- -t 1.7027504 -s 0 -d 4 -p tcp -e 15040 -c 0 -i 36 -a 0 -x {0.0 3.0 11 ------- null}
h -t 1.7027504 -s 0 -d 4 -p tcp -e 15040 -c 0 -i 36 -a 0 -x {0.0 3.0 -1 ------- null}
- -t 1.7030024 -s 1 -d 4 -p ack -e 40 -c 0 -i 49 -a 0 -x {1.0 2.0 10 ------- null}
h -t 1.7030024 -s 1 -d 4 -p ack -e 40 -c 0 -i 49 -a 0 -x {1.0 2.0 -1 ------- null}
r -t 1.7100208 -s 4 -d 1 -p tcp -e 15040 -c 0 -i 43 -a 0 -x {2.0 1.0 14 ------- null}
h -t 1.7100208 -s 1 -d 4 -p ack -e 40 -c 0 -i 53 -a 0 -x {1.0 2.0 14 ------- null}
r -t 1.7101024 -s 4 -d 2 -p ack -e 40 -c 0 -i 46 -a 0 -x {1.0 2.0 7 ------- null}
h -t 1.7101024 -s 2 -d 4 -p tcp -e 15040 -c 0 -i 54 -a 0 -x {2.0 1.0 15 ------- null}
h -t 1.7101024 -s 2 -d 4 -p tcp -e 15040 -c 0 -i 55 -a 0 -x {2.0 1.0 16 ------- null}
r -t 1.7108704 -s 4 -d 0 -p ack -e 40 -c 0 -i 44 -a 0 -x {3.0 0.0 7 ------- null}
h -t 1.7108704 -s 0 -d 4 -p tcp -e 15040 -c 0 -i 56 -a 0 -x {0.0 3.0 15 ------- null}
h -t 1.7108704 -s 0 -d 4 -p tcp -e 15040 -c 0 -i 57 -a 0 -x {0.0 3.0 16 ------- null}
r -t 1.7109312 -s 4 -d 0 -p ack -e 40 -c 0 -i 45 -a 0 -x {3.0 0.0 8 ------- null}
h -t 1.7109312 -s 0 -d 4 -p tcp -e 15040 -c 0 -i 58 -a 0 -x {0.0 3.0 17 ------- null}
h -t 1.7109312 -s 0 -d 4 -p tcp -e 15040 -c 0 -i 59 -a 0 -x {0.0 3.0 18 ------- null}
+ -t 1.7136336 -s 1 -d 4 -p ack -e 40 -c 0 -i 50 -a 0 -x {1.0 2.0 11 ------- null}
- -t 1.7136336 -s 1 -d 4 -p ack -e 40 -c 0 -i 50 -a 0 -x {1.0 2.0 11 ------- null}
h -t 1.7136336 -s 1 -d 4 -p ack -e 40 -c 0 -i 50 -a 0 -x {1.0 2.0 -1 ------- null}
- -t 1.7153792 -s 0 -d 4 -p tcp -e 15040 -c 0 -i 37 -a 0 -x {0.0 3.0 12 ------- null}
h -t 1.7153792 -s 0 -d 4 -p tcp -e 15040 -c 0 -i 37 -a 0 -x {0.0 3.0 -1 ------- null}
r -t 1.7171992 -s 4 -d 2 -p ack -e 40 -c 0 -i 47 -a 0 -x {1.0 2.0 8 ------- null}
h -t 1.7171992 -s 2 -d 4 -p tcp -e 15040 -c 0 -i 60 -a 0 -x {2.0 1.0 17 ------- null}
h -t 1.7171992 -s 2 -d 4 -p tcp -e 15040 -c 0 -i 61 -a 0 -x {2.0 1.0 18 ------- null}
+ -t 1.7257584 -s 1 -d 4 -p ack -e 40 -c 0 -i 51 -a 0 -x {1.0 2.0 12 ------- null}
- -t 1.7275168 -s 0 -d 4 -p tcp -e 15040 -c 0 -i 38 -a 0 -x {0.0 3.0 13 ------- null}
h -t 1.7275168 -s 0 -d 4 -p tcp -e 15040 -c 0 -i 38 -a 0 -x {0.0 3.0 -1 ------- null}
r -t 1.7303816 -s 4 -d 3 -p tcp -e 15040 -c 0 -i 30 -a 0 -x {0.0 3.0 9 ------- null}
h -t 1.7303816 -s 3 -d 4 -p ack -e 40 -c 0 -i 62 -a 0 -x {3.0 0.0 9 ------- null}
+ -t 1.737832 -s 1 -d 4 -p ack -e 40 -c 0 -i 52 -a 0 -x {1.0 2.0 13 ------- null}
- -t 1.73959039999999 -s 0 -d 4 -p tcp -e 15040 -c 0 -i 39 -a 0 -x {0.0 3.0 14 ------- null}
h -t 1.73959039999999 -s 0 -d 4 -p tcp -e 15040 -c 0 -i 39 -a 0 -x {0.0 3.0 -1 ------- null}
r -t 1.7427448 -s 4 -d 3 -p tcp -e 15040 -c 0 -i 31 -a 0 -x {0.0 3.0 10 ------- null}
h -t 1.7427448 -s 3 -d 4 -p ack -e 40 -c 0 -i 63 -a 0 -x {3.0 0.0 10 ------- null}
r -t 1.7429968 -s 4 -d 2 -p ack -e 40 -c 0 -i 48 -a 0 -x {1.0 2.0 9 ------- null}
h -t 1.7429968 -s 2 -d 4 -p tcp -e 15040 -c 0 -i 64 -a 0 -x {2.0 1.0 19 ------- null}
h -t 1.7429968 -s 2 -d 4 -p tcp -e 15040 -c 0 -i 65 -a 0 -x {2.0 1.0 20 ------- null}
r -t 1.7431296 -s 4 -d 2 -p ack -e 40 -c 0 -i 49 -a 0 -x {1.0 2.0 10 ------- null}
h -t 1.7431296 -s 2 -d 4 -p tcp -e 15040 -c 0 -i 66 -a 0 -x {2.0 1.0 21 ------- null}
h -t 1.7431296 -s 2 -d 4 -p tcp -e 15040 -c 0 -i 67 -a 0 -x {2.0 1.0 22 ------- null}
+ -t 1.7500208 -s 1 -d 4 -p ack -e 40 -c 0 -i 53 -a 0 -x {1.0 2.0 14 ------- null}
+ -t 1.7501024 -s 2 -d 4 -p tcp -e 15040 -c 0 -i 54 -a 0 -x {2.0 1.0 15 ------- null}
- -t 1.7501024 -s 2 -d 4 -p tcp -e 15040 -c 0 -i 54 -a 0 -x {2.0 1.0 15 ------- null}
h -t 1.7501024 -s 2 -d 4 -p tcp -e 15040 -c 0 -i 54 -a 0 -x {2.0 1.0 -1 ------- null}
+ -t 1.7501024 -s 2 -d 4 -p tcp -e 15040 -c 0 -i 55 -a 0 -x {2.0 1.0 16 ------- null}
+ -t 1.7508704 -s 0 -d 4 -p tcp -e 15040 -c 0 -i 56 -a 0 -x {0.0 3.0 15 ------- null}
+ -t 1.7508704 -s 0 -d 4 -p tcp -e 15040 -c 0 -i 57 -a 0 -x {0.0 3.0 16 ------- null}
+ -t 1.7509312 -s 0 -d 4 -p tcp -e 15040 -c 0 -i 58 -a 0 -x {0.0 3.0 17 ------- null}
+ -t 1.7509312 -s 0 -d 4 -p tcp -e 15040 -c 0 -i 59 -a 0 -x {0.0 3.0 18 ------- null}
- -t 1.75171519999999 -s 0 -d 4 -p tcp -e 15040 -c 0 -i 56 -a 0 -x {0.0 3.0 15 ------- null}
h -t 1.75171519999999 -s 0 -d 4 -p tcp -e 15040 -c 0 -i 56 -a 0 -x {0.0 3.0 -1 ------- null}
r -t 1.7553736 -s 4 -d 3 -p tcp -e 15040 -c 0 -i 36 -a 0 -x {0.0 3.0 11 ------- null}
h -t 1.7553736 -s 3 -d 4 -p ack -e 40 -c 0 -i 68 -a 0 -x {3.0 0.0 11 ------- null}
+ -t 1.7571992 -s 2 -d 4 -p tcp -e 15040 -c 0 -i 60 -a 0 -x {2.0 1.0 17 ------- null}
+ -t 1.7571992 -s 2 -d 4 -p tcp -e 15040 -c 0 -i 61 -a 0 -x {2.0 1.0 18 ------- null}
- -t 1.76390399999999 -s 0 -d 4 -p tcp -e 15040 -c 0 -i 57 -a 0 -x {0.0 3.0 16 ------- null}
h -t 1.76390399999999 -s 0 -d 4 -p tcp -e 15040 -c 0 -i 57 -a 0 -x {0.0 3.0 -1 ------- null}
r -t 1.7675112 -s 4 -d 3 -p tcp -e 15040 -c 0 -i 37 -a 0 -x {0.0 3.0 12 ------- null}
h -t 1.7675112 -s 3 -d 4 -p ack -e 40 -c 0 -i 69 -a 0 -x {3.0 0.0 12 ------- null}
+ -t 1.7703816 -s 3 -d 4 -p ack -e 40 -c 0 -i 62 -a 0 -x {3.0 0.0 9 ------- null}
- -t 1.7703816 -s 3 -d 4 -p ack -e 40 -c 0 -i 62 -a 0 -x {3.0 0.0 9 ------- null}
h -t 1.7703816 -s 3 -d 4 -p ack -e 40 -c 0 -i 62 -a 0 -x {3.0 0.0 -1 ------- null}
- -t 1.77597759999999 -s 0 -d 4 -p tcp -e 15040 -c 0 -i 58 -a 0 -x {0.0 3.0 17 ------- null}
h -t 1.77597759999999 -s 0 -d 4 -p tcp -e 15040 -c 0 -i 58 -a 0 -x {0.0 3.0 -1 ------- null}
r -t 1.77958479999999 -s 4 -d 3 -p tcp -e 15040 -c 0 -i 38 -a 0 -x {0.0 3.0 13 ------- null}
h -t 1.77958479999999 -s 3 -d 4 -p ack -e 40 -c 0 -i 70 -a 0 -x {3.0 0.0 13 ------- null}
+ -t 1.7827448 -s 3 -d 4 -p ack -e 40 -c 0 -i 63 -a 0 -x {3.0 0.0 10 ------- null}
+ -t 1.7829968 -s 2 -d 4 -p tcp -e 15040 -c 0 -i 64 -a 0 -x {2.0 1.0 19 ------- null}
+ -t 1.7829968 -s 2 -d 4 -p tcp -e 15040 -c 0 -i 65 -a 0 -x {2.0 1.0 20 ------- null}
+ -t 1.7831296 -s 2 -d 4 -p tcp -e 15040 -c 0 -i 66 -a 0 -x {2.0 1.0 21 ------- null}
+ -t 1.7831296 -s 2 -d 4 -p tcp -e 15040 -c 0 -i 67 -a 0 -x {2.0 1.0 22 ------- null}
- -t 1.78814959999999 -s 2 -d 4 -p tcp -e 15040 -c 0 -i 55 -a 0 -x {2.0 1.0 16 ------- null}
h -t 1.78814959999999 -s 2 -d 4 -p tcp -e 15040 -c 0 -i 55 -a 0 -x {2.0 1.0 -1 ------- null}
r -t 1.79170959999999 -s 4 -d 3 -p tcp -e 15040 -c 0 -i 39 -a 0 -x {0.0 3.0 14 ------- null}
h -t 1.79170959999999 -s 3 -d 4 -p ack -e 40 -c 0 -i 71 -a 0 -x {3.0 0.0 14 ------- null}
+ -t 1.7953736 -s 3 -d 4 -p ack -e 40 -c 0 -i 68 -a 0 -x {3.0 0.0 11 ------- null}
- -t 1.80021919999999 -s 0 -d 4 -p tcp -e 15040 -c 0 -i 59 -a 0 -x {0.0 3.0 18 ------- null}
h -t 1.80021919999999 -s 0 -d 4 -p tcp -e 15040 -c 0 -i 59 -a 0 -x {0.0 3.0 -1 ------- null}
r -t 1.80389839999999 -s 4 -d 3 -p tcp -e 15040 -c 0 -i 56 -a 0 -x {0.0 3.0 15 ------- null}
h -t 1.80389839999999 -s 3 -d 4 -p ack -e 40 -c 0 -i 72 -a 0 -x {3.0 0.0 15 ------- null}
+ -t 1.8075112 -s 3 -d 4 -p ack -e 40 -c 0 -i 69 -a 0 -x {3.0 0.0 12 ------- null}
- -t 1.81228879999999 -s 2 -d 4 -p tcp -e 15040 -c 0 -i 60 -a 0 -x {2.0 1.0 17 ------- null}
h -t 1.81228879999999 -s 2 -d 4 -p tcp -e 15040 -c 0 -i 60 -a 0 -x {2.0 1.0 -1 ------- null}
r -t 1.81597199999999 -s 4 -d 3 -p tcp -e 15040 -c 0 -i 57 -a 0 -x {0.0 3.0 16 ------- null}
h -t 1.81597199999999 -s 3 -d 4 -p ack -e 40 -c 0 -i 73 -a 0 -x {3.0 0.0 16 ------- null}
+ -t 1.81958479999999 -s 3 -d 4 -p ack -e 40 -c 0 -i 70 -a 0 -x {3.0 0.0 13 ------- null}
- -t 1.82436239999999 -s 2 -d 4 -p tcp -e 15040 -c 0 -i 61 -a 0 -x {2.0 1.0 18 ------- null}
h -t 1.82436239999999 -s 2 -d 4 -p tcp -e 15040 -c 0 -i 61 -a 0 -x {2.0 1.0 -1 ------- null}
r -t 1.82814399999999 -s 4 -d 1 -p tcp -e 15040 -c 0 -i 54 -a 0 -x {2.0 1.0 15 ------- null}
h -t 1.82814399999999 -s 1 -d 4 -p ack -e 40 -c 0 -i 74 -a 0 -x {1.0 2.0 15 ------- null}
+ -t 1.83170959999999 -s 3 -d 4 -p ack -e 40 -c 0 -i 71 -a 0 -x {3.0 0.0 14 ------- null}
- -t 1.83643599999999 -s 2 -d 4 -p tcp -e 15040 -c 0 -i 64 -a 0 -x {2.0 1.0 19 ------- null}
h -t 1.83643599999999 -s 2 -d 4 -p tcp -e 15040 -c 0 -i 64 -a 0 -x {2.0 1.0 -1 ------- null}
r -t 1.84021359999999 -s 4 -d 3 -p tcp -e 15040 -c 0 -i 58 -a 0 -x {0.0 3.0 17 ------- null}
h -t 1.84021359999999 -s 3 -d 4 -p ack -e 40 -c 0 -i 75 -a 0 -x {3.0 0.0 17 ------- null}
+ -t 1.84389839999999 -s 3 -d 4 -p ack -e 40 -c 0 -i 72 -a 0 -x {3.0 0.0 15 ------- null}
- -t 1.84856079999999 -s 2 -d 4 -p tcp -e 15040 -c 0 -i 65 -a 0 -x {2.0 1.0 20 ------- null}
h -t 1.84856079999999 -s 2 -d 4 -p tcp -e 15040 -c 0 -i 65 -a 0 -x {2.0 1.0 -1 ------- null}
r -t 1.85228319999999 -s 4 -d 1 -p tcp -e 15040 -c 0 -i 55 -a 0 -x {2.0 1.0 16 ------- null}
h -t 1.85228319999999 -s 1 -d 4 -p ack -e 40 -c 0 -i 76 -a 0 -x {1.0 2.0 16 ------- null}
+ -t 1.85597199999999 -s 3 -d 4 -p ack -e 40 -c 0 -i 73 -a 0 -x {3.0 0.0 16 ------- null}
- -t 1.86068559999999 -s 2 -d 4 -p tcp -e 15040 -c 0 -i 66 -a 0 -x {2.0 1.0 21 ------- null}
h -t 1.86068559999999 -s 2 -d 4 -p tcp -e 15040 -c 0 -i 66 -a 0 -x {2.0 1.0 -1 ------- null}
r -t 1.86435679999999 -s 4 -d 1 -p tcp -e 15040 -c 0 -i 60 -a 0 -x {2.0 1.0 17 ------- null}
h -t 1.86435679999999 -s 1 -d 4 -p ack -e 40 -c 0 -i 77 -a 0 -x {1.0 2.0 17 ------- null}
+ -t 1.86814399999999 -s 1 -d 4 -p ack -e 40 -c 0 -i 74 -a 0 -x {1.0 2.0 15 ------- null}
- -t 1.87281039999999 -s 2 -d 4 -p tcp -e 15040 -c 0 -i 67 -a 0 -x {2.0 1.0 22 ------- null}
h -t 1.87281039999999 -s 2 -d 4 -p tcp -e 15040 -c 0 -i 67 -a 0 -x {2.0 1.0 -1 ------- null}
r -t 1.87643039999999 -s 4 -d 1 -p tcp -e 15040 -c 0 -i 61 -a 0 -x {2.0 1.0 18 ------- null}
h -t 1.87643039999999 -s 1 -d 4 -p ack -e 40 -c 0 -i 78 -a 0 -x {1.0 2.0 18 ------- null}
+ -t 1.88021359999999 -s 3 -d 4 -p ack -e 40 -c 0 -i 75 -a 0 -x {3.0 0.0 17 ------- null}
r -t 1.88855519999999 -s 4 -d 1 -p tcp -e 15040 -c 0 -i 64 -a 0 -x {2.0 1.0 19 ------- null}
h -t 1.88855519999999 -s 1 -d 4 -p ack -e 40 -c 0 -i 79 -a 0 -x {1.0 2.0 19 ------- null}
- -t 1.89225119999999 -s 1 -d 4 -p ack -e 40 -c 0 -i 51 -a 0 -x {1.0 2.0 12 ------- null}
h -t 1.89225119999999 -s 1 -d 4 -p ack -e 40 -c 0 -i 51 -a 0 -x {1.0 2.0 -1 ------- null}
+ -t 1.89228319999999 -s 1 -d 4 -p ack -e 40 -c 0 -i 76 -a 0 -x {1.0 2.0 16 ------- null}
- -t 1.89231199999999 -s 1 -d 4 -p ack -e 40 -c 0 -i 52 -a 0 -x {1.0 2.0 13 ------- null}
h -t 1.89231199999999 -s 1 -d 4 -p ack -e 40 -c 0 -i 52 -a 0 -x {1.0 2.0 -1 ------- null}
- -t 1.89237279999999 -s 1 -d 4 -p ack -e 40 -c 0 -i 53 -a 0 -x {1.0 2.0 14 ------- null}