h 1 0 4 tcp 40 ------- 0 0.0 3.0 0 0
h 1 2 4 tcp 40 ------- 0 2.0 1.0 0 1
+ 1.04 0 4 tcp 40 ------- 0 0.0 3.0 0 0
- 1.04 0 4 tcp 40 ------- 0 0.0 3.0 0 0
+ 1.04 2 4 tcp 40 ------- 0 2.0 1.0 0 1
- 1.04 2 4 tcp 40 ------- 0 2.0 1.0 0 1
r 1.080072 4 3 tcp 40 ------- 0 0.0 3.0 0 0
h 1.080072 3 4 ack 40 ------- 0 3.0 0.0 0 2
r 1.080137 4 1 tcp 40 ------- 0 2.0 1.0 0 1
h 1.080137 1 4 ack 40 ------- 0 1.0 2.0 0 3
+ 1.120072 3 4 ack 40 ------- 0 3.0 0.0 0 2
- 1.120072 3 4 ack 40 ------- 0 3.0 0.0 0 2
+ 1.120137 1 4 ack 40 ------- 0 1.0 2.0 0 3
- 1.120137 1 4 ack 40 ------- 0 1.0 2.0 0 3
r 1.160127 4 0 ack 40 ------- 0 3.0 0.0 0 2
h 1.160127 0 4 tcp 15040 ------- 0 0.0 3.0 1 4
h 1.160127 0 4 tcp 15040 ------- 0 0.0 3.0 2 5
r 1.160192 4 2 ack 40 ------- 0 1.0 2.0 0 3
h 1.160192 2 4 tcp 15040 ------- 0 2.0 1.0 1 6
h 1.160192 2 4 tcp 15040 ------- 0 2.0 1.0 2 7
+ 1.200127 0 4 tcp 15040 ------- 0 0.0 3.0 1 4
- 1.200127 0 4 tcp 15040 ------- 0 0.0 3.0 1 4
+ 1.200127 0 4 tcp 15040 ------- 0 0.0 3.0 2 5
+ 1.200192 2 4 tcp 15040 ------- 0 2.0 1.0 1 6
- 1.200192 2 4 tcp 15040 ------- 0 2.0 1.0 1 6
+ 1.200192 2 4 tcp 15040 ------- 0 2.0 1.0 2 7
- 1.21218 0 4 tcp 15040 ------- 0 0.0 3.0 2 5
- 1.224322 2 4 tcp 15040 ------- 0 2.0 1.0 2 7
r 1.252174 4 3 tcp 15040 ------- 0 0.0 3.0 1 4
h 1.252174 3 4 ack 40 ------- 0 3.0 0.0 1 8
r 1.264316 4 1 tcp 15040 ------- 0 2.0 1.0 1 6
h 1.264316 1 4 ack 40 ------- 0 1.0 2.0 1 9
r 1.276441 4 1 tcp 15040 ------- 0 2.0 1.0 2 7
h 1.276441 1 4 ack 40 ------- 0 1.0 2.0 2 10
r 1.288498 4 3 tcp 15040 ------- 0 0.0 3.0 2 5
h 1.288498 3 4 ack 40 ------- 0 3.0 0.0 2 11
+ 1.292174 3 4 ack 40 ------- 0 3.0 0.0 1 8
- 1.292174 3 4 ack 40 ------- 0 3.0 0.0 1 8
+ 1.304316 1 4 ack 40 ------- 0 1.0 2.0 1 9
- 1.304316 1 4 ack 40 ------- 0 1.0 2.0 1 9
+ 1.316441 1 4 ack 40 ------- 0 1.0 2.0 2 10
- 1.316441 1 4 ack 40 ------- 0 1.0 2.0 2 10
+ 1.328498 3 4 ack 40 ------- 0 3.0 0.0 2 11
- 1.328498 3 4 ack 40 ------- 0 3.0 0.0 2 11
r 1.33223 4 0 ack 40 ------- 0 3.0 0.0 1 8
h 1.33223 0 4 tcp 15040 ------- 0 0.0 3.0 3 12
h 1.33223 0 4 tcp 15040 ------- 0 0.0 3.0 4 13
r 1.344371 4 2 ack 40 ------- 0 1.0 2.0 1 9
h 1.344371 2 4 tcp 15040 ------- 0 2.0 1.0 3 14
h 1.344371 2 4 tcp 15040 ------- 0 2.0 1.0 4 15
r 1.356496 4 2 ack 40 ------- 0 1.0 2.0 2 10
h 1.356496 2 4 tcp 15040 ------- 0 2.0 1.0 5 16
h 1.356496 2 4 tcp 15040 ------- 0 2.0 1.0 6 17
r 1.368553 4 0 ack 40 ------- 0 3.0 0.0 2 11
h 1.368553 0 4 tcp 15040 ------- 0 0.0 3.0 5 18
h 1.368553 0 4 tcp 15040 ------- 0 0.0 3.0 6 19
+ 1.37223 0 4 tcp 15040 ------- 0 0.0 3.0 3 12
- 1.37223 0 4 tcp 15040 ------- 0 0.0 3.0 3 12
+ 1.37223 0 4 tcp 15040 ------- 0 0.0 3.0 4 13
- 1.384282 0 4 tcp 15040 ------- 0 0.0 3.0 4 13
+ 1.384371 2 4 tcp 15040 ------- 0 2.0 1.0 3 14
- 1.384371 2 4 tcp 15040 ------- 0 2.0 1.0 3 14
+ 1.384371 2 4 tcp 15040 ------- 0 2.0 1.0 4 15
+ 1.396496 2 4 tcp 15040 ------- 0 2.0 1.0 5 16
+ 1.396496 2 4 tcp 15040 ------- 0 2.0 1.0 6 17
- 1.408392 2 4 tcp 15040 ------- 0 2.0 1.0 4 15
+ 1.408553 0 4 tcp 15040 ------- 0 0.0 3.0 5 18
- 1.408553 0 4 tcp 15040 ------- 0 0.0 3.0 5 18
+ 1.408553 0 4 tcp 15040 ------- 0 0.0 3.0 6 19
- 1.420445 2 4 tcp 15040 ------- 0 2.0 1.0 5 16
r 1.424277 4 3 tcp 15040 ------- 0 0.0 3.0 3 12
h 1.424277 3 4 ack 40 ------- 0 3.0 0.0 3 20
- 1.432535 0 4 tcp 15040 ------- 0 0.0 3.0 6 19
r 1.43633 4 3 tcp 15040 ------- 0 0.0 3.0 4 13
h 1.43633 3 4 ack 40 ------- 0 3.0 0.0 4 21
r 1.448386 4 1 tcp 15040 ------- 0 2.0 1.0 3 14
h 1.448386 1 4 ack 40 ------- 0 1.0 2.0 3 22
- 1.456717 2 4 tcp 15040 ------- 0 2.0 1.0 6 17
r 1.460439 4 1 tcp 15040 ------- 0 2.0 1.0 4 15
h 1.460439 1 4 ack 40 ------- 0 1.0 2.0 4 23
+ 1.464277 3 4 ack 40 ------- 0 3.0 0.0 3 20
- 1.464277 3 4 ack 40 ------- 0 3.0 0.0 3 20
r 1.47253 4 3 tcp 15040 ------- 0 0.0 3.0 5 18
h 1.47253 3 4 ack 40 ------- 0 3.0 0.0 5 24
+ 1.47633 3 4 ack 40 ------- 0 3.0 0.0 4 21
- 1.47633 3 4 ack 40 ------- 0 3.0 0.0 4 21
r 1.484654 4 3 tcp 15040 ------- 0 0.0 3.0 6 19
h 1.484654 3 4 ack 40 ------- 0 3.0 0.0 6 25
+ 1.488386 1 4 ack 40 ------- 0 1.0 2.0 3 22
- 1.488386 1 4 ack 40 ------- 0 1.0 2.0 3 22
r 1.496711 4 1 tcp 15040 ------- 0 2.0 1.0 5 16
h 1.496711 1 4 ack 40 ------- 0 1.0 2.0 5 26
+ 1.500439 1 4 ack 40 ------- 0 1.0 2.0 4 23
- 1.500439 1 4 ack 40 ------- 0 1.0 2.0 4 23
r 1.508764 4 1 tcp 15040 ------- 0 2.0 1.0 6 17
h 1.508764 1 4 ack 40 ------- 0 1.0 2.0 6 27
r 1.508829 4 0 ack 40 ------- 0 3.0 0.0 3 20
h 1.508829 0 4 tcp 15040 ------- 0 0.0 3.0 7 28
h 1.508829 0 4 tcp 15040 ------- 0 0.0 3.0 8 29
+ 1.51253 3 4 ack 40 ------- 0 3.0 0.0 5 24
- 1.51253 3 4 ack 40 ------- 0 3.0 0.0 5 24
r 1.516385 4 0 ack 40 ------- 0 3.0 0.0 4 21
h 1.516385 0 4 tcp 15040 ------- 0 0.0 3.0 9 30
h 1.516385 0 4 tcp 15040 ------- 0 0.0 3.0 10 31
+ 1.524654 3 4 ack 40 ------- 0 3.0 0.0 6 25
- 1.524654 3 4 ack 40 ------- 0 3.0 0.0 6 25
r 1.528442 4 2 ack 40 ------- 0 1.0 2.0 3 22
h 1.528442 2 4 tcp 15040 ------- 0 2.0 1.0 7 32
h 1.528442 2 4 tcp 15040 ------- 0 2.0 1.0 8 33
+ 1.536711 1 4 ack 40 ------- 0 1.0 2.0 5 26
- 1.536711 1 4 ack 40 ------- 0 1.0 2.0 5 26
r 1.540494 4 2 ack 40 ------- 0 1.0 2.0 4 23
h 1.540494 2 4 tcp 15040 ------- 0 2.0 1.0 9 34
h 1.540494 2 4 tcp 15040 ------- 0 2.0 1.0 10 35
+ 1.548764 1 4 ack 40 ------- 0 1.0 2.0 6 27
- 1.548764 1 4 ack 40 ------- 0 1.0 2.0 6 27
+ 1.548829 0 4 tcp 15040 ------- 0 0.0 3.0 7 28
- 1.548829 0 4 tcp 15040 ------- 0 0.0 3.0 7 28
+ 1.548829 0 4 tcp 15040 ------- 0 0.0 3.0 8 29
r 1.552585 4 0 ack 40 ------- 0 3.0 0.0 5 24
h 1.552585 0 4 tcp 15040 ------- 0 0.0 3.0 11 36
h 1.552585 0 4 tcp 15040 ------- 0 0.0 3.0 12 37
+ 1.556385 0 4 tcp 15040 ------- 0 0.0 3.0 9 30
+ 1.556385 0 4 tcp 15040 ------- 0 0.0 3.0 10 31
- 1.560882 0 4 tcp 15040 ------- 0 0.0 3.0 8 29
r 1.56471 4 0 ack 40 ------- 0 3.0 0.0 6 25
h 1.56471 0 4 tcp 15040 ------- 0 0.0 3.0 13 38
h 1.56471 0 4 tcp 15040 ------- 0 0.0 3.0 14 39
+ 1.568442 2 4 tcp 15040 ------- 0 2.0 1.0 7 32
- 1.568442 2 4 tcp 15040 ------- 0 2.0 1.0 7 32
+ 1.568442 2 4 tcp 15040 ------- 0 2.0 1.0 8 33
- 1.572934 0 4 tcp 15040 ------- 0 0.0 3.0 9 30
r 1.576766 4 2 ack 40 ------- 0 1.0 2.0 5 26
h 1.576766 2 4 tcp 15040 ------- 0 2.0 1.0 11 40
h 1.576766 2 4 tcp 15040 ------- 0 2.0 1.0 12 41
+ 1.580494 2 4 tcp 15040 ------- 0 2.0 1.0 9 34
+ 1.580494 2 4 tcp 15040 ------- 0 2.0 1.0 10 35
- 1.585076 2 4 tcp 15040 ------- 0 2.0 1.0 8 33
r 1.588819 4 2 ack 40 ------- 0 1.0 2.0 6 27
h 1.588819 2 4 tcp 15040 ------- 0 2.0 1.0 13 42
h 1.588819 2 4 tcp 15040 ------- 0 2.0 1.0 14 43
+ 1.592585 0 4 tcp 15040 ------- 0 0.0 3.0 11 36
+ 1.592585 0 4 tcp 15040 ------- 0 0.0 3.0 12 37
- 1.59715 2 4 tcp 15040 ------- 0 2.0 1.0 9 34
r 1.600876 4 3 tcp 15040 ------- 0 0.0 3.0 7 28
h 1.600876 3 4 ack 40 ------- 0 3.0 0.0 7 44
+ 1.60471 0 4 tcp 15040 ------- 0 0.0 3.0 13 38
+ 1.60471 0 4 tcp 15040 ------- 0 0.0 3.0 14 39
- 1.609274 2 4 tcp 15040 ------- 0 2.0 1.0 10 35
r 1.612929 4 3 tcp 15040 ------- 0 0.0 3.0 8 29
h 1.612929 3 4 ack 40 ------- 0 3.0 0.0 8 45
+ 1.616766 2 4 tcp 15040 ------- 0 2.0 1.0 11 40
+ 1.616766 2 4 tcp 15040 ------- 0 2.0 1.0 12 41
- 1.621514 2 4 tcp 15040 ------- 0 2.0 1.0 11 40
r 1.62507 4 1 tcp 15040 ------- 0 2.0 1.0 7 32
h 1.62507 1 4 ack 40 ------- 0 1.0 2.0 7 46
+ 1.628819 2 4 tcp 15040 ------- 0 2.0 1.0 13 42
+ 1.628819 2 4 tcp 15040 ------- 0 2.0 1.0 14 43
- 1.633639 2 4 tcp 15040 ------- 0 2.0 1.0 12 41
r 1.637144 4 1 tcp 15040 ------- 0 2.0 1.0 8 33
h 1.637144 1 4 ack 40 ------- 0 1.0 2.0 8 47
+ 1.640876 3 4 ack 40 ------- 0 3.0 0.0 7 44
- 1.640876 3 4 ack 40 ------- 0 3.0 0.0 7 44
- 1.645764 2 4 tcp 15040 ------- 0 2.0 1.0 13 42
r 1.649269 4 1 tcp 15040 ------- 0 2.0 1.0 9 34
h 1.649269 1 4 ack 40 ------- 0 1.0 2.0 9 48
+ 1.652929 3 4 ack 40 ------- 0 3.0 0.0 8 45
- 1.657838 2 4 tcp 15040 ------- 0 2.0 1.0 14 43
r 1.661509 4 1 tcp 15040 ------- 0 2.0 1.0 10 35
h 1.661509 1 4 ack 40 ------- 0 1.0 2.0 10 49
+ 1.66507 1 4 ack 40 ------- 0 1.0 2.0 7 46
- 1.66507 1 4 ack 40 ------- 0 1.0 2.0 7 46
- 1.670876 3 4 ack 40 ------- 0 3.0 0.0 8 45
r 1.673634 4 1 tcp 15040 ------- 0 2.0 1.0 11 40
h 1.673634 1 4 ack 40 ------- 0 1.0 2.0 11 50
+ 1.677144 1 4 ack 40 ------- 0 1.0 2.0 8 47
- 1.677144 1 4 ack 40 ------- 0 1.0 2.0 8 47
r 1.685758 4 1 tcp 15040 ------- 0 2.0 1.0 12 41
h 1.685758 1 4 ack 40 ------- 0 1.0 2.0 12 51
+ 1.689269 1 4 ack 40 ------- 0 1.0 2.0 9 48
- 1.689269 1 4 ack 40 ------- 0 1.0 2.0 9 48
- 1.690387 0 4 tcp 15040 ------- 0 0.0 3.0 10 31
r 1.697832 4 1 tcp 15040 ------- 0 2.0 1.0 13 42
h 1.697832 1 4 ack 40 ------- 0 1.0 2.0 13 52
+ 1.701509 1 4 ack 40 ------- 0 1.0 2.0 10 49
- 1.70275 0 4 tcp 15040 ------- 0 0.0 3.0 11 36
- 1.703002 1 4 ack 40 ------- 0 1.0 2.0 10 49
r 1.710021 4 1 tcp 15040 ------- 0 2.0 1.0 14 43
h 1.710021 1 4 ack 40 ------- 0 1.0 2.0 14 53
r 1.710102 4 2 ack 40 ------- 0 1.0 2.0 7 46
h 1.710102 2 4 tcp 15040 ------- 0 2.0 1.0 15 54
h 1.710102 2 4 tcp 15040 ------- 0 2.0 1.0 16 55
r 1.71087 4 0 ack 40 ------- 0 3.0 0.0 7 44
h 1.71087 0 4 tcp 15040 ------- 0 0.0 3.0 15 56
h 1.71087 0 4 tcp 15040 ------- 0 0.0 3.0 16 57
r 1.710931 4 0 ack 40 ------- 0 3.0 0.0 8 45
h 1.710931 0 4 tcp 15040 ------- 0 0.0 3.0 17 58
h 1.710931 0 4 tcp 15040 ------- 0 0.0 3.0 18 59
+ 1.713634 1 4 ack 40 ------- 0 1.0 2.0 11 50
- 1.713634 1 4 ack 40 ------- 0 1.0 2.0 11 50
- 1.715379 0 4 tcp 15040 ------- 0 0.0 3.0 12 37
r 1.717199 4 2 ack 40 ------- 0 1.0 2.0 8 47
h 1.717199 2 4 tcp 15040 ------- 0 2.0 1.0 17 60
h 1.717199 2 4 tcp 15040 ------- 0 2.0 1.0 18 61
+ 1.725758 1 4 ack 40 ------- 0 1.0 2.0 12 51
- 1.727517 0 4 tcp 15040 ------- 0 0.0 3.0 13 38
r 1.730382 4 3 tcp 15040 ------- 0 0.0 3.0 9 30
h 1.730382 3 4 ack 40 ------- 0 3.0 0.0 9 62
+ 1.737832 1 4 ack 40 ------- 0 1.0 2.0 13 52
- 1.73959 0 4 tcp 15040 ------- 0 0.0 3.0 14 39
r 1.742745 4 3 tcp 15040 ------- 0 0.0 3.0 10 31
h 1.742745 3 4 ack 40 ------- 0 3.0 0.0 10 63
r 1.742997 4 2 ack 40 ------- 0 1.0 2.0 9 48
h 1.742997 2 4 tcp 15040 ------- 0 2.0 1.0 19 64
h 1.742997 2 4 tcp 15040 ------- 0 2.0 1.0 20 65
r 1.74313 4 2 ack 40 ------- 0 1.0 2.0 10 49
h 1.74313 2 4 tcp 15040 ------- 0 2.0 1.0 21 66
h 1.74313 2 4 tcp 15040 ------- 0 2.0 1.0 22 67
+ 1.750021 1 4 ack 40 ------- 0 1.0 2.0 14 53
+ 1.750102 2 4 tcp 15040 ------- 0 2.0 1.0 15 54
- 1.750102 2 4 tcp 15040 ------- 0 2.0 1.0 15 54
+ 1.750102 2 4 tcp 15040 ------- 0 2.0 1.0 16 55
+ 1.75087 0 4 tcp 15040 ------- 0 0.0 3.0 15 56
+ 1.75087 0 4 tcp 15040 ------- 0 0.0 3.0 16 57
+ 1.750931 0 4 tcp 15040 ------- 0 0.0 3.0 17 58
+ 1.750931 0 4 tcp 15040 ------- 0 0.0 3.0 18 59
- 1.751715 0 4 tcp 15040 ------- 0 0.0 3.0 15 56
r 1.755374 4 3 tcp 15040 ------- 0 0.0 3.0 11 36
h 1.755374 3 4 ack 40 ------- 0 3.0 0.0 11 68
+ 1.757199 2 4 tcp 15040 ------- 0 2.0 1.0 17 60
+ 1.757199 2 4 tcp 15040 ------- 0 2.0 1.0 18 61
- 1.763904 0 4 tcp 15040 ------- 0 0.0 3.0 16 57
r 1.767511 4 3 tcp 15040 ------- 0 0.0 3.0 12 37
h 1.767511 3 4 ack 40 ------- 0 3.0 0.0 12 69
+ 1.770382 3 4 ack 40 ------- 0 3.0 0.0 9 62
- 1.770382 3 4 ack 40 ------- 0 3.0 0.0 9 62
- 1.775978 0 4 tcp 15040 ------- 0 0.0 3.0 17 58
r 1.779585 4 3 tcp 15040 ------- 0 0.0 3.0 13 38
h 1.779585 3 4 ack 40 ------- 0 3.0 0.0 13 70
+ 1.782745 3 4 ack 40 ------- 0 3.0 0.0 10 63
+ 1.782997 2 4 tcp 15040 ------- 0 2.0 1.0 19 64
+ 1.782997 2 4 tcp 15040 ------- 0 2.0 1.0 20 65
+ 1.78313 2 4 tcp 15040 ------- 0 2.0 1.0 21 66
+ 1.78313 2 4 tcp 15040 ------- 0 2.0 1.0 22 67
- 1.78815 2 4 tcp 15040 ------- 0 2.0 1.0 16 55
r 1.79171 4 3 tcp 15040 ------- 0 0.0 3.0 14 39
h 1.79171 3 4 ack 40 ------- 0 3.0 0.0 14 71
+ 1.795374 3 4 ack 40 ------- 0 3.0 0.0 11 68
- 1.800219 0 4 tcp 15040 ------- 0 0.0 3.0 18 59
r 1.803898 4 3 tcp 15040 ------- 0 0.0 3.0 15 56
h 1.803898 3 4 ack 40 ------- 0 3.0 0.0 15 72
+ 1.807511 3 4 ack 40 ------- 0 3.0 0.0 12 69
- 1.812289 2 4 tcp 15040 ------- 0 2.0 1.0 17 60
r 1.815972 4 3 tcp 15040 ------- 0 0.0 3.0 16 57
h 1.815972 3 4 ack 40 ------- 0 3.0 0.0 16 73
+ 1.819585 3 4 ack 40 ------- 0 3.0 0.0 13 70
- 1.824362 2 4 tcp 15040 ------- 0 2.0 1.0 18 61
r 1.828144 4 1 tcp 15040 ------- 0 2.0 1.0 15 54
h 1.828144 1 4 ack 40 ------- 0 1.0 2.0 15 74
+ 1.83171 3 4 ack 40 ------- 0 3.0 0.0 14 71
- 1.836436 2 4 tcp 15040 ------- 0 2.0 1.0 19 64
r 1.840214 4 3 tcp 15040 ------- 0 0.0 3.0 17 58
h 1.840214 3 4 ack 40 ------- 0 3.0 0.0 17 75
+ 1.843898 3 4 ack 40 ------- 0 3.0 0.0 15 72
- 1.848561 2 4 tcp 15040 ------- 0 2.0 1.0 20 65
r 1.852283 4 1 tcp 15040 ------- 0 2.0 1.0 16 55
h 1.852283 1 4 ack 40 ------- 0 1.0 2.0 16 76
+ 1.855972 3 4 ack 40 ------- 0 3.0 0.0 16 73
- 1.860686 2 4 tcp 15040 ------- 0 2.0 1.0 21 66
r 1.864357 4 1 tcp 15040 ------- 0 2.0 1.0 17 60
h 1.864357 1 4 ack 40 ------- 0 1.0 2.0 17 77
+ 1.868144 1 4 ack 40 ------- 0 1.0 2.0 15 74
- 1.87281 2 4 tcp 15040 ------- 0 2.0 1.0 22 67
r 1.87643 4 1 tcp 15040 ------- 0 2.0 1.0 18 61
h 1.87643 1 4 ack 40 ------- 0 1.0 2.0 18 78
+ 1.880214 3 4 ack 40 ------- 0 3.0 0.0 17 75
r 1.888555 4 1 tcp 15040 ------- 0 2.0 1.0 19 64
h 1.888555 1 4 ack 40 ------- 0 1.0 2.0 19 79
- 1.892251 1 4 ack 40 ------- 0 1.0 2.0 12 51
+ 1.892283 1 4 ack 40 ------- 0 1.0 2.0 16 76
- 1.892312 1 4 ack 40 ------- 0 1.0 2.0 13 52
- 1.892373 1 4 ack 40 ------- 0 1.0 2.0 14 53
- 1.892434 1 4 ack 40 ------- 0 1.0 2.0 15 74
- 1.892494 1 4 ack 40 ------- 0 1.0 2.0 16 76
r 1.90068 4 1 tcp 15040 ------- 0 2.0 1.0 20 65
h 1.90068 1 4 ack 40 ------- 0 1.0 2.0 20 80
+ 1.904357 1 4 ack 40 ------- 0 1.0 2.0 17 77
- 1.904357 1 4 ack 40 ------- 0 1.0 2.0 17 77
r 1.912805 4 1 tcp 15040 ------- 0 2.0 1.0 21 66
h 1.912805 1 4 ack 40 ------- 0 1.0 2.0 21 81
+ 1.91643 1 4 ack 40 ------- 0 1.0 2.0 18 78
- 1.91643 1 4 ack 40 ------- 0 1.0 2.0 18 78
r 1.92493 4 1 tcp 15040 ------- 0 2.0 1.0 22 67
h 1.92493 1 4 ack 40 ------- 0 1.0 2.0 22 82
+ 1.928555 1 4 ack 40 ------- 0 1.0 2.0 19 79
- 1.928555 1 4 ack 40 ------- 0 1.0 2.0 19 79
r 1.932246 4 2 ack 40 ------- 0 1.0 2.0 11 50
h 1.932246 2 4 tcp 15040 ------- 0 2.0 1.0 23 83
h 1.932246 2 4 tcp 15040 ------- 0 2.0 1.0 24 84
r 1.932306 4 2 ack 40 ------- 0 1.0 2.0 12 51
h 1.932306 2 4 tcp 15040 ------- 0 2.0 1.0 25 85
h 1.932306 2 4 tcp 15040 ------- 0 2.0 1.0 26 86
r 1.932367 4 2 ack 40 ------- 0 1.0 2.0 13 52
h 1.932367 2 4 tcp 15040 ------- 0 2.0 1.0 27 87
h 1.932367 2 4 tcp 15040 ------- 0 2.0 1.0 28 88
r 1.932428 4 2 ack 40 ------- 0 1.0 2.0 14 53
h 1.932428 2 4 tcp 15040 ------- 0 2.0 1.0 29 89
h 1.932428 2 4 tcp 15040 ------- 0 2.0 1.0 30 90
r 1.932489 4 2 ack 40 ------- 0 1.0 2.0 15 74
h 1.932489 2 4 tcp 15040 ------- 0 2.0 1.0 31 91
h 1.932489 2 4 tcp 15040 ------- 0 2.0 1.0 32 92
r 1.93255 4 2 ack 40 ------- 0 1.0 2.0 16 76
h 1.93255 2 4 tcp 15040 ------- 0 2.0 1.0 33 93
h 1.93255 2 4 tcp 15040 ------- 0 2.0 1.0 34 94
- 1.933545 3 4 ack 40 ------- 0 3.0 0.0 10 63
- 1.933606 3 4 ack 40 ------- 0 3.0 0.0 11 68
- 1.933666 3 4 ack 40 ------- 0 3.0 0.0 12 69
- 1.933727 3 4 ack 40 ------- 0 3.0 0.0 13 70
- 1.933788 3 4 ack 40 ------- 0 3.0 0.0 14 71
- 1.933849 3 4 ack 40 ------- 0 3.0 0.0 15 72
- 1.93391 3 4 ack 40 ------- 0 3.0 0.0 16 73
- 1.93397 3 4 ack 40 ------- 0 3.0 0.0 17 75
+ 1.94068 1 4 ack 40 ------- 0 1.0 2.0 20 80
- 1.94068 1 4 ack 40 ------- 0 1.0 2.0 20 80
r 1.948318 4 3 tcp 15040 ------- 0 0.0 3.0 18 59
h 1.948318 3 4 ack 40 ------- 0 3.0 0.0 18 95
r 1.9484 4 2 ack 40 ------- 0 1.0 2.0 17 77
h 1.9484 2 4 tcp 15040 ------- 0 2.0 1.0 35 96
h 1.9484 2 4 tcp 15040 ------- 0 2.0 1.0 36 97
+ 1.952805 1 4 ack 40 ------- 0 1.0 2.0 21 81
- 1.952805 1 4 ack 40 ------- 0 1.0 2.0 21 81
r 1.956486 4 2 ack 40 ------- 0 1.0 2.0 18 78
h 1.956486 2 4 tcp 15040 ------- 0 2.0 1.0 37 98
h 1.956486 2 4 tcp 15040 ------- 0 2.0 1.0 38 99
+ 1.96493 1 4 ack 40 ------- 0 1.0 2.0 22 82
- 1.96493 1 4 ack 40 ------- 0 1.0 2.0 22 82
r 1.96861 4 2 ack 40 ------- 0 1.0 2.0 19 79
h 1.96861 2 4 tcp 15040 ------- 0 2.0 1.0 39 100
+ 1.972246 2 4 tcp 15040 ------- 0 2.0 1.0 23 83
- 1.972246 2 4 tcp 15040 ------- 0 2.0 1.0 23 83
+ 1.972246 2 4 tcp 15040 ------- 0 2.0 1.0 24 84
+ 1.972306 2 4 tcp 15040 ------- 0 2.0 1.0 25 85
+ 1.972306 2 4 tcp 15040 ------- 0 2.0 1.0 26 86
+ 1.972367 2 4 tcp 15040 ------- 0 2.0 1.0 27 87
+ 1.972367 2 4 tcp 15040 ------- 0 2.0 1.0 28 88
+ 1.972428 2 4 tcp 15040 ------- 0 2.0 1.0 29 89
+ 1.972428 2 4 tcp 15040 ------- 0 2.0 1.0 30 90
+ 1.972489 2 4 tcp 15040 ------- 0 2.0 1.0 31 91
+ 1.972489 2 4 tcp 15040 ------- 0 2.0 1.0 32 92
+ 1.97255 2 4 tcp 15040 ------- 0 2.0 1.0 33 93
+ 1.97255 2 4 tcp 15040 ------- 0 2.0 1.0 34 94
r 1.973539 4 0 ack 40 ------- 0 3.0 0.0 9 62
h 1.973539 0 4 tcp 15040 ------- 0 0.0 3.0 19 101
h 1.973539 0 4 tcp 15040 ------- 0 0.0 3.0 20 102
r 1.9736 4 0 ack 40 ------- 0 3.0 0.0 10 63
h 1.9736 0 4 tcp 15040 ------- 0 0.0 3.0 21 103
h 1.9736 0 4 tcp 15040 ------- 0 0.0 3.0 22 104
r 1.973661 4 0 ack 40 ------- 0 3.0 0.0 11 68
h 1.973661 0 4 tcp 15040 ------- 0 0.0 3.0 23 105
h 1.973661 0 4 tcp 15040 ------- 0 0.0 3.0 24 106
r 1.973722 4 0 ack 40 ------- 0 3.0 0.0 12 69
h 1.973722 0 4 tcp 15040 ------- 0 0.0 3.0 25 107
h 1.973722 0 4 tcp 15040 ------- 0 0.0 3.0 26 108
r 1.973782 4 0 ack 40 ------- 0 3.0 0.0 13 70
h 1.973782 0 4 tcp 15040 ------- 0 0.0 3.0 27 109
h 1.973782 0 4 tcp 15040 ------- 0 0.0 3.0 28 110
r 1.973843 4 0 ack 40 ------- 0 3.0 0.0 14 71
h 1.973843 0 4 tcp 15040 ------- 0 0.0 3.0 29 111
h 1.973843 0 4 tcp 15040 ------- 0 0.0 3.0 30 112
r 1.973904 4 0 ack 40 ------- 0 3.0 0.0 15 72
h 1.973904 0 4 tcp 15040 ------- 0 0.0 3.0 31 113
h 1.973904 0 4 tcp 15040 ------- 0 0.0 3.0 32 114
r 1.973965 4 0 ack 40 ------- 0 3.0 0.0 16 73
h 1.973965 0 4 tcp 15040 ------- 0 0.0 3.0 33 115
h 1.973965 0 4 tcp 15040 ------- 0 0.0 3.0 34 116
r 1.974026 4 0 ack 40 ------- 0 3.0 0.0 17 75
h 1.974026 0 4 tcp 15040 ------- 0 0.0 3.0 35 117
h 1.974026 0 4 tcp 15040 ------- 0 0.0 3.0 36 118
r 1.980735 4 2 ack 40 ------- 0 1.0 2.0 20 80
h 1.980735 2 4 tcp 15040 ------- 0 2.0 1.0 40 119
- 1.984298 2 4 tcp 15040 ------- 0 2.0 1.0 24 84
+ 1.988318 3 4 ack 40 ------- 0 3.0 0.0 18 95
- 1.988318 3 4 ack 40 ------- 0 3.0 0.0 18 95
+ 1.9884 2 4 tcp 15040 ------- 0 2.0 1.0 35 96
+ 1.9884 2 4 tcp 15040 ------- 0 2.0 1.0 36 97
r 1.99286 4 2 ack 40 ------- 0 1.0 2.0 21 81
h 1.99286 2 4 tcp 15040 ------- 0 2.0 1.0 41 120
- 1.996351 2 4 tcp 15040 ------- 0 2.0 1.0 25 85
+ 1.996486 2 4 tcp 15040 ------- 0 2.0 1.0 37 98
+ 1.996486 2 4 tcp 15040 ------- 0 2.0 1.0 38 99
r 2.004985 4 2 ack 40 ------- 0 1.0 2.0 22 82
- 2.008486 2 4 tcp 15040 ------- 0 2.0 1.0 26 86
+ 2.00861 2 4 tcp 15040 ------- 0 2.0 1.0 39 100
+ 2.013539 0 4 tcp 15040 ------- 0 0.0 3.0 19 101
- 2.013539 0 4 tcp 15040 ------- 0 0.0 3.0 19 101
+ 2.013539 0 4 tcp 15040 ------- 0 0.0 3.0 20 102
+ 2.0136 0 4 tcp 15040 ------- 0 0.0 3.0 21 103
+ 2.0136 0 4 tcp 15040 ------- 0 0.0 3.0 22 104
+ 2.013661 0 4 tcp 15040 ------- 0 0.0 3.0 23 105
+ 2.013661 0 4 tcp 15040 ------- 0 0.0 3.0 24 106
+ 2.013722 0 4 tcp 15040 ------- 0 0.0 3.0 25 107
+ 2.013722 0 4 tcp 15040 ------- 0 0.0 3.0 26 108
+ 2.013782 0 4 tcp 15040 ------- 0 0.0 3.0 27 109
+ 2.013782 0 4 tcp 15040 ------- 0 0.0 3.0 28 110
+ 2.013843 0 4 tcp 15040 ------- 0 0.0 3.0 29 111
+ 2.013843 0 4 tcp 15040 ------- 0 0.0 3.0 30 112
+ 2.013904 0 4 tcp 15040 ------- 0 0.0 3.0 31 113
+ 2.013904 0 4 tcp 15040 ------- 0 0.0 3.0 32 114
+ 2.013965 0 4 tcp 15040 ------- 0 0.0 3.0 33 115
+ 2.013965 0 4 tcp 15040 ------- 0 0.0 3.0 34 116
+ 2.014026 0 4 tcp 15040 ------- 0 0.0 3.0 35 117
+ 2.014026 0 4 tcp 15040 ------- 0 0.0 3.0 36 118
- 2.020538 2 4 tcp 15040 ------- 0 2.0 1.0 27 87
+ 2.020735 2 4 tcp 15040 ------- 0 2.0 1.0 40 119
r 2.024293 4 1 tcp 15040 ------- 0 2.0 1.0 23 83
h 2.024293 1 4 ack 40 ------- 0 1.0 2.0 23 121
- 2.032608 0 4 tcp 15040 ------- 0 0.0 3.0 20 102
+ 2.03286 2 4 tcp 15040 ------- 0 2.0 1.0 41 120
r 2.036346 4 1 tcp 15040 ------- 0 2.0 1.0 24 84
h 2.036346 1 4 ack 40 ------- 0 1.0 2.0 24 122
r 2.036423 4 0 ack 40 ------- 0 3.0 0.0 18 95
- 2.044682 0 4 tcp 15040 ------- 0 0.0 3.0 21 103
r 2.04848 4 1 tcp 15040 ------- 0 2.0 1.0 25 85
h 2.04848 1 4 ack 40 ------- 0 1.0 2.0 25 123
- 2.056755 0 4 tcp 15040 ------- 0 0.0 3.0 22 104
r 2.060533 4 1 tcp 15040 ------- 0 2.0 1.0 26 86
h 2.060533 1 4 ack 40 ------- 0 1.0 2.0 26 124
+ 2.064293 1 4 ack 40 ------- 0 1.0 2.0 23 121
- 2.064293 1 4 ack 40 ------- 0 1.0 2.0 23 121
- 2.06888 0 4 tcp 15040 ------- 0 0.0 3.0 23 105
r 2.072602 4 3 tcp 15040 ------- 0 0.0 3.0 19 101
h 2.072602 3 4 ack 40 ------- 0 3.0 0.0 19 125
+ 2.076346 1 4 ack 40 ------- 0 1.0 2.0 24 122
- 2.076346 1 4 ack 40 ------- 0 1.0 2.0 24 122
- 2.08112 0 4 tcp 15040 ------- 0 0.0 3.0 24 106
r 2.084676 4 3 tcp 15040 ------- 0 0.0 3.0 20 102
h 2.084676 3 4 ack 40 ------- 0 3.0 0.0 20 126
+ 2.08848 1 4 ack 40 ------- 0 1.0 2.0 25 123
- 2.093309 0 4 tcp 15040 ------- 0 0.0 3.0 25 107
- 2.093386 1 4 ack 40 ------- 0 1.0 2.0 25 123
r 2.09675 4 3 tcp 15040 ------- 0 0.0 3.0 21 103
h 2.09675 3 4 ack 40 ------- 0 3.0 0.0 21 127
+ 2.100533 1 4 ack 40 ------- 0 1.0 2.0 26 124
- 2.100533 1 4 ack 40 ------- 0 1.0 2.0 26 124
- 2.105558 0 4 tcp 15040 ------- 0 0.0 3.0 26 108
r 2.108874 4 3 tcp 15040 ------- 0 0.0 3.0 22 104
h 2.108874 3 4 ack 40 ------- 0 3.0 0.0 22 128
r 2.109024 4 2 ack 40 ------- 0 1.0 2.0 23 121
+ 2.112602 3 4 ack 40 ------- 0 3.0 0.0 19 125
- 2.112602 3 4 ack 40 ------- 0 3.0 0.0 19 125
- 2.117632 0 4 tcp 15040 ------- 0 0.0 3.0 27 109
r 2.121114 4 3 tcp 15040 ------- 0 0.0 3.0 23 105
h 2.121114 3 4 ack 40 ------- 0 3.0 0.0 23 129
+ 2.124676 3 4 ack 40 ------- 0 3.0 0.0 20 126
- 2.129706 0 4 tcp 15040 ------- 0 0.0 3.0 28 110
- 2.129783 3 4 ack 40 ------- 0 3.0 0.0 20 126
r 2.133303 4 3 tcp 15040 ------- 0 0.0 3.0 24 106
h 2.133303 3 4 ack 40 ------- 0 3.0 0.0 24 130
r 2.133381 4 2 ack 40 ------- 0 1.0 2.0 24 122
r 2.133462 4 2 ack 40 ------- 0 1.0 2.0 25 123
+ 2.13675 3 4 ack 40 ------- 0 3.0 0.0 21 127
- 2.13675 3 4 ack 40 ------- 0 3.0 0.0 21 127
- 2.142232 0 4 tcp 15040 ------- 0 0.0 3.0 29 111
r 2.145553 4 3 tcp 15040 ------- 0 0.0 3.0 25 107
h 2.145553 3 4 ack 40 ------- 0 3.0 0.0 25 131
+ 2.148874 3 4 ack 40 ------- 0 3.0 0.0 22 128
- 2.148874 3 4 ack 40 ------- 0 3.0 0.0 22 128
- 2.154523 0 4 tcp 15040 ------- 0 0.0 3.0 30 112
r 2.157626 4 3 tcp 15040 ------- 0 0.0 3.0 26 108
h 2.157626 3 4 ack 40 ------- 0 3.0 0.0 26 132
+ 2.161114 3 4 ack 40 ------- 0 3.0 0.0 23 129
- 2.161114 3 4 ack 40 ------- 0 3.0 0.0 23 129
- 2.166658 0 4 tcp 15040 ------- 0 0.0 3.0 31 113
r 2.1697 4 3 tcp 15040 ------- 0 0.0 3.0 27 109
h 2.1697 3 4 ack 40 ------- 0 3.0 0.0 27 133
r 2.169778 4 0 ack 40 ------- 0 3.0 0.0 19 125
r 2.169974 4 0 ack 40 ------- 0 3.0 0.0 20 126
r 2.170085 4 2 ack 40 ------- 0 1.0 2.0 26 124
+ 2.173303 3 4 ack 40 ------- 0 3.0 0.0 24 130
- 2.173303 3 4 ack 40 ------- 0 3.0 0.0 24 130
- 2.179123 0 4 tcp 15040 ------- 0 0.0 3.0 32 114
r 2.182226 4 3 tcp 15040 ------- 0 0.0 3.0 28 110
h 2.182226 3 4 ack 40 ------- 0 3.0 0.0 28 134
r 2.182376 4 0 ack 40 ------- 0 3.0 0.0 21 127
+ 2.185553 3 4 ack 40 ------- 0 3.0 0.0 25 131
- 2.185553 3 4 ack 40 ------- 0 3.0 0.0 25 131
- 2.191538 0 4 tcp 15040 ------- 0 0.0 3.0 33 115
r 2.194518 4 3 tcp 15040 ------- 0 0.0 3.0 29 111
h 2.194518 3 4 ack 40 ------- 0 3.0 0.0 29 135
r 2.194595 4 0 ack 40 ------- 0 3.0 0.0 22 128
+ 2.197626 3 4 ack 40 ------- 0 3.0 0.0 26 132
- 2.197626 3 4 ack 40 ------- 0 3.0 0.0 26 132
- 2.203672 0 4 tcp 15040 ------- 0 0.0 3.0 34 116
r 2.206652 4 3 tcp 15040 ------- 0 0.0 3.0 30 112
h 2.206652 3 4 ack 40 ------- 0 3.0 0.0 30 136
r 2.206866 4 0 ack 40 ------- 0 3.0 0.0 23 129
+ 2.2097 3 4 ack 40 ------- 0 3.0 0.0 27 133
- 2.215746 0 4 tcp 15040 ------- 0 0.0 3.0 35 117
r 2.219118 4 3 tcp 15040 ------- 0 0.0 3.0 31 113
h 2.219118 3 4 ack 40 ------- 0 3.0 0.0 31 137
r 2.219434 4 0 ack 40 ------- 0 3.0 0.0 24 130
+ 2.222226 3 4 ack 40 ------- 0 3.0 0.0 28 134
- 2.227819 0 4 tcp 15040 ------- 0 0.0 3.0 36 118
r 2.231532 4 3 tcp 15040 ------- 0 0.0 3.0 32 114
h 2.231532 3 4 ack 40 ------- 0 3.0 0.0 32 138
r 2.23161 4 0 ack 40 ------- 0 3.0 0.0 25 131
+ 2.234518 3 4 ack 40 ------- 0 3.0 0.0 29 135
- 2.241216 3 4 ack 40 ------- 0 3.0 0.0 27 133
- 2.241277 3 4 ack 40 ------- 0 3.0 0.0 28 134
- 2.241338 3 4 ack 40 ------- 0 3.0 0.0 29 135
r 2.243666 4 3 tcp 15040 ------- 0 0.0 3.0 33 115
h 2.243666 3 4 ack 40 ------- 0 3.0 0.0 33 139
+ 2.246652 3 4 ack 40 ------- 0 3.0 0.0 30 136
- 2.246652 3 4 ack 40 ------- 0 3.0 0.0 30 136
r 2.25574 4 3 tcp 15040 ------- 0 0.0 3.0 34 116
h 2.25574 3 4 ack 40 ------- 0 3.0 0.0 34 140
+ 2.259118 3 4 ack 40 ------- 0 3.0 0.0 31 137
- 2.259118 3 4 ack 40 ------- 0 3.0 0.0 31 137
- 2.267237 2 4 tcp 15040 ------- 0 2.0 1.0 28 88
r 2.267814 4 3 tcp 15040 ------- 0 0.0 3.0 35 117
h 2.267814 3 4 ack 40 ------- 0 3.0 0.0 35 141
+ 2.271532 3 4 ack 40 ------- 0 3.0 0.0 32 138
- 2.27931 2 4 tcp 15040 ------- 0 2.0 1.0 29 89
r 2.279951 4 3 tcp 15040 ------- 0 0.0 3.0 36 118
h 2.279951 3 4 ack 40 ------- 0 3.0 0.0 36 142
r 2.28121 4 0 ack 40 ------- 0 3.0 0.0 26 132
r 2.281271 4 0 ack 40 ------- 0 3.0 0.0 27 133
r 2.281332 4 0 ack 40 ------- 0 3.0 0.0 28 134
r 2.281393 4 0 ack 40 ------- 0 3.0 0.0 29 135
+ 2.283666 3 4 ack 40 ------- 0 3.0 0.0 33 139
r 2.286707 4 0 ack 40 ------- 0 3.0 0.0 30 136
- 2.291499 2 4 tcp 15040 ------- 0 2.0 1.0 30 90
+ 2.29574 3 4 ack 40 ------- 0 3.0 0.0 34 140
- 2.303624 2 4 tcp 15040 ------- 0 2.0 1.0 31 91
r 2.307231 4 1 tcp 15040 ------- 0 2.0 1.0 27 87
h 2.307231 1 4 ack 40 ------- 0 1.0 2.0 27 143
+ 2.307814 3 4 ack 40 ------- 0 3.0 0.0 35 141
- 2.315698 2 4 tcp 15040 ------- 0 2.0 1.0 32 92
r 2.319305 4 1 tcp 15040 ------- 0 2.0 1.0 28 88
h 2.319305 1 4 ack 40 ------- 0 1.0 2.0 28 144
+ 2.319951 3 4 ack 40 ------- 0 3.0 0.0 36 142
- 2.327989 2 4 tcp 15040 ------- 0 2.0 1.0 33 93
r 2.331494 4 1 tcp 15040 ------- 0 2.0 1.0 29 89
h 2.331494 1 4 ack 40 ------- 0 1.0 2.0 29 145
- 2.340062 2 4 tcp 15040 ------- 0 2.0 1.0 34 94
r 2.343618 4 1 tcp 15040 ------- 0 2.0 1.0 30 90
h 2.343618 1 4 ack 40 ------- 0 1.0 2.0 30 146
+ 2.347231 1 4 ack 40 ------- 0 1.0 2.0 27 143
- 2.347231 1 4 ack 40 ------- 0 1.0 2.0 27 143
- 2.352136 2 4 tcp 15040 ------- 0 2.0 1.0 35 96
r 2.355692 4 1 tcp 15040 ------- 0 2.0 1.0 31 91
h 2.355692 1 4 ack 40 ------- 0 1.0 2.0 31 147
+ 2.359305 1 4 ack 40 ------- 0 1.0 2.0 28 144
- 2.364222 2 4 tcp 15040 ------- 0 2.0 1.0 36 97
- 2.3643 1 4 ack 40 ------- 0 1.0 2.0 28 144
r 2.367983 4 1 tcp 15040 ------- 0 2.0 1.0 32 92
h 2.367983 1 4 ack 40 ------- 0 1.0 2.0 32 148
+ 2.371494 1 4 ack 40 ------- 0 1.0 2.0 29 145
- 2.371494 1 4 ack 40 ------- 0 1.0 2.0 29 145
- 2.376523 2 4 tcp 15040 ------- 0 2.0 1.0 37 98
r 2.380057 4 1 tcp 15040 ------- 0 2.0 1.0 33 93
h 2.380057 1 4 ack 40 ------- 0 1.0 2.0 33 149
+ 2.383618 1 4 ack 40 ------- 0 1.0 2.0 30 146
- 2.388597 2 4 tcp 15040 ------- 0 2.0 1.0 38 99
r 2.39213 4 1 tcp 15040 ------- 0 2.0 1.0 34 94
h 2.39213 1 4 ack 40 ------- 0 1.0 2.0 34 150
+ 2.395692 1 4 ack 40 ------- 0 1.0 2.0 31 147
- 2.40067 2 4 tcp 15040 ------- 0 2.0 1.0 39 100
r 2.404217 4 1 tcp 15040 ------- 0 2.0 1.0 35 96
h 2.404217 1 4 ack 40 ------- 0 1.0 2.0 35 151
r 2.404294 4 2 ack 40 ------- 0 1.0 2.0 27 143
r 2.404376 4 2 ack 40 ------- 0 1.0 2.0 28 144
+ 2.407983 1 4 ack 40 ------- 0 1.0 2.0 32 148
- 2.412859 2 4 tcp 15040 ------- 0 2.0 1.0 40 119
r 2.416518 4 1 tcp 15040 ------- 0 2.0 1.0 36 97
h 2.416518 1 4 ack 40 ------- 0 1.0 2.0 36 152
+ 2.420057 1 4 ack 40 ------- 0 1.0 2.0 33 149
- 2.424984 2 4 tcp 15040 ------- 0 2.0 1.0 41 120
r 2.428591 4 1 tcp 15040 ------- 0 2.0 1.0 37 98
h 2.428591 1 4 ack 40 ------- 0 1.0 2.0 37 153
+ 2.43213 1 4 ack 40 ------- 0 1.0 2.0 34 150
r 2.440665 4 1 tcp 15040 ------- 0 2.0 1.0 38 99
h 2.440665 1 4 ack 40 ------- 0 1.0 2.0 38 154
- 2.442771 1 4 ack 40 ------- 0 1.0 2.0 30 146
- 2.442832 1 4 ack 40 ------- 0 1.0 2.0 31 147
- 2.442893 1 4 ack 40 ------- 0 1.0 2.0 32 148
- 2.442954 1 4 ack 40 ------- 0 1.0 2.0 33 149
- 2.443014 1 4 ack 40 ------- 0 1.0 2.0 34 150
+ 2.444217 1 4 ack 40 ------- 0 1.0 2.0 35 151
- 2.444217 1 4 ack 40 ------- 0 1.0 2.0 35 151
r 2.452854 4 1 tcp 15040 ------- 0 2.0 1.0 39 100
h 2.452854 1 4 ack 40 ------- 0 1.0 2.0 39 155
+ 2.456518 1 4 ack 40 ------- 0 1.0 2.0 36 152
- 2.456518 1 4 ack 40 ------- 0 1.0 2.0 36 152
- 2.463354 3 4 ack 40 ------- 0 3.0 0.0 32 138
- 2.463414 3 4 ack 40 ------- 0 3.0 0.0 33 139
- 2.463475 3 4 ack 40 ------- 0 3.0 0.0 34 140
- 2.463536 3 4 ack 40 ------- 0 3.0 0.0 35 141
- 2.463597 3 4 ack 40 ------- 0 3.0 0.0 36 142
r 2.464978 4 1 tcp 15040 ------- 0 2.0 1.0 40 119
h 2.464978 1 4 ack 40 ------- 0 1.0 2.0 40 156
+ 2.468591 1 4 ack 40 ------- 0 1.0 2.0 37 153
- 2.468591 1 4 ack 40 ------- 0 1.0 2.0 37 153
r 2.477103 4 1 tcp 15040 ------- 0 2.0 1.0 41 120
h 2.477103 1 4 ack 40 ------- 0 1.0 2.0 41 157
+ 2.480665 1 4 ack 40 ------- 0 1.0 2.0 38 154
- 2.480665 1 4 ack 40 ------- 0 1.0 2.0 38 154
r 2.482766 4 2 ack 40 ------- 0 1.0 2.0 29 145
r 2.482826 4 2 ack 40 ------- 0 1.0 2.0 30 146
r 2.482887 4 2 ack 40 ------- 0 1.0 2.0 31 147
r 2.482948 4 2 ack 40 ------- 0 1.0 2.0 32 148
r 2.483009 4 2 ack 40 ------- 0 1.0 2.0 33 149
r 2.48307 4 2 ack 40 ------- 0 1.0 2.0 34 150
r 2.484272 4 2 ack 40 ------- 0 1.0 2.0 35 151
+ 2.492854 1 4 ack 40 ------- 0 1.0 2.0 39 155
- 2.492854 1 4 ack 40 ------- 0 1.0 2.0 39 155
r 2.496573 4 2 ack 40 ------- 0 1.0 2.0 36 152
h 2.5 0 4 tcp 15040 ------- 0 0.0 3.0 37 158
h 2.5 0 4 tcp 15040 ------- 0 0.0 3.0 38 159
h 2.5 0 4 tcp 15040 ------- 0 0.0 3.0 39 160
h 2.5 0 4 tcp 15040 ------- 0 0.0 3.0 40 161
h 2.5 0 4 tcp 15040 ------- 0 0.0 3.0 41 162
h 2.5 0 4 tcp 15040 ------- 0 0.0 3.0 42 163
h 2.5 0 4 tcp 15040 ------- 0 0.0 3.0 43 164
h 2.5 0 4 tcp 15040 ------- 0 0.0 3.0 44 165
h 2.5 0 4 tcp 15040 ------- 0 0.0 3.0 45 166
h 2.5 0 4 tcp 15040 ------- 0 0.0 3.0 46 167
h 2.5 0 4 tcp 15040 ------- 0 0.0 3.0 47 168
h 2.5 0 4 tcp 15040 ------- 0 0.0 3.0 48 169
h 2.5 0 4 tcp 15040 ------- 0 0.0 3.0 49 170
h 2.5 0 4 tcp 15040 ------- 0 0.0 3.0 50 171
r 2.503348 4 0 ack 40 ------- 0 3.0 0.0 31 137
h 2.503348 0 4 tcp 15040 ------- 0 0.0 3.0 51 172
r 2.503409 4 0 ack 40 ------- 0 3.0 0.0 32 138