s 0.029290548 _1_ RTR  --- 0 message 32 [0 0 0 0] ------- [1:255 -1:255 32 0] 
s 0.029365548 _1_ MAC  --- 0 message 90 [0 ffffffff 1 800] ------- [1:255 -1:255 32 0] 
r 0.030086082 _0_ MAC  --- 0 message 32 [0 ffffffff 1 800] ------- [1:255 -1:255 32 0] 
r 0.030111082 _0_ RTR  --- 0 message 32 [0 ffffffff 1 800] ------- [1:255 -1:255 32 0] 
M 0.10000 0 (268.00, 339.00, 0.00), (600.00, 344.00), 100.00
M 0.10000 1 (428.00, 344.00, 0.00), (300.00, 339.00), 100.00
s 1.000000000 _0_ AGT  --- 1 tcp 40 [0 0 0 0] ------- [0:0 1:0 32 0] [0 0] 0 0
r 1.000000000 _0_ RTR  --- 1 tcp 40 [0 0 0 0] ------- [0:0 1:0 32 0] [0 0] 0 0
s 1.000000000 _0_ RTR  --- 1 tcp 60 [0 0 0 0] ------- [0:0 1:0 32 1] [0 0] 0 0
s 1.000255000 _0_ MAC  --- 0 ARP 86 [0 ffffffff 0 806] ------- [REQUEST 0/0 0/1]
r 1.000943067 _1_ MAC  --- 0 ARP 28 [0 ffffffff 0 806] ------- [REQUEST 0/0 0/1]
s 1.001358067 _1_ MAC  --- 0 RTS 44 [52e 0 1 0] 
r 1.001710134 _0_ MAC  --- 0 RTS 44 [52e 0 1 0] 
s 1.001720134 _0_ MAC  --- 0 CTS 38 [3f4 1 0 0] 
r 1.002024201 _1_ MAC  --- 0 CTS 38 [3f4 1 0 0] 
s 1.002034201 _1_ MAC  --- 0 ARP 86 [13a 0 1 806] ------- [REPLY 1/1 0/0]
r 1.002722269 _0_ MAC  --- 0 ARP 28 [13a 0 1 806] ------- [REPLY 1/1 0/0]
s 1.002732269 _0_ MAC  --- 0 ACK 38 [0 1 0 0] 
r 1.003036337 _1_ MAC  --- 0 ACK 38 [0 1 0 0] 
s 1.003346269 _0_ MAC  --- 0 RTS 44 [62e 1 0 0] 
r 1.003698338 _1_ MAC  --- 0 RTS 44 [62e 1 0 0] 
s 1.003708338 _1_ MAC  --- 0 CTS 38 [4f4 0 0 0] 
r 1.004012407 _0_ MAC  --- 0 CTS 38 [4f4 0 0 0] 
s 1.004022407 _0_ MAC  --- 1 tcp 118 [13a 1 0 800] ------- [0:0 1:0 32 1] [0 0] 0 0
r 1.004966476 _1_ MAC  --- 1 tcp 60 [13a 1 0 800] ------- [0:0 1:0 32 1] [0 0] 1 0
s 1.004976476 _1_ MAC  --- 0 ACK 38 [0 0 0 0] 
r 1.004991476 _1_ AGT  --- 1 tcp 60 [13a 1 0 800] ------- [0:0 1:0 32 1] [0 0] 1 0
s 1.004991476 _1_ AGT  --- 2 ack 40 [0 0 0 0] ------- [1:0 0:0 32 0] [0 0] 0 0
r 1.004991476 _1_ RTR  --- 2 ack 40 [0 0 0 0] ------- [1:0 0:0 32 0] [0 0] 0 0
r 1.005280546 _0_ MAC  --- 0 ACK 38 [0 0 0 0] 
s 1.112189378 _0_ RTR  --- 3 message 32 [0 0 0 0] ------- [0:255 -1:255 32 0] 
s 1.112624378 _0_ MAC  --- 3 message 90 [0 ffffffff 0 800] ------- [0:255 -1:255 32 0] 
r 1.113344519 _1_ MAC  --- 3 message 32 [0 ffffffff 0 800] ------- [0:255 -1:255 32 0] 
r 1.113369519 _1_ RTR  --- 3 message 32 [0 ffffffff 0 800] ------- [0:255 -1:255 32 0] 
s 1.113369519 _1_ RTR  --- 2 ack 80 [0 0 0 0] ------- [1:0 0:0 32 0] [0 0] 0 0
s 1.113604519 _1_ MAC  --- 0 RTS 44 [6ce 0 1 0] 
r 1.113956661 _0_ MAC  --- 0 RTS 44 [6ce 0 1 0] 
s 1.113966661 _0_ MAC  --- 0 CTS 38 [594 1 0 0] 
r 1.114270803 _1_ MAC  --- 0 CTS 38 [594 1 0 0] 
s 1.114280803 _1_ MAC  --- 2 ack 138 [13a 0 1 800] ------- [1:0 0:0 32 0] [0 0] 0 0
r 1.115384946 _0_ MAC  --- 2 ack 80 [13a 0 1 800] ------- [1:0 0:0 32 0] [0 0] 1 0
s 1.115394946 _0_ MAC  --- 0 ACK 38 [0 1 0 0] 
r 1.115409946 _0_ AGT  --- 2 ack 80 [13a 0 1 800] ------- [1:0 0:0 32 0] [0 0] 1 0
s 1.115409946 _0_ AGT  --- 4 tcp 1540 [0 0 0 0] ------- [0:0 1:0 32 0] [1 0] 0 0
r 1.115409946 _0_ RTR  --- 4 tcp 1540 [0 0 0 0] ------- [0:0 1:0 32 0] [1 0] 0 0
s 1.115409946 _0_ RTR  --- 4 tcp 1560 [0 0 0 0] ------- [0:0 1:0 32 1] [1 0] 0 0
s 1.115409946 _0_ AGT  --- 5 tcp 1540 [0 0 0 0] ------- [0:0 1:0 32 0] [2 0] 0 0
r 1.115409946 _0_ RTR  --- 5 tcp 1540 [0 0 0 0] ------- [0:0 1:0 32 0] [2 0] 0 0
s 1.115409946 _0_ RTR  --- 5 tcp 1560 [0 0 0 0] ------- [0:0 1:0 32 1] [2 0] 0 0
r 1.115699089 _1_ MAC  --- 0 ACK 38 [0 1 0 0] 
s 1.115788946 _0_ MAC  --- 0 RTS 44 [350e 1 0 0] 
r 1.116141090 _1_ MAC  --- 0 RTS 44 [350e 1 0 0] 
s 1.116151090 _1_ MAC  --- 0 CTS 38 [33d4 0 0 0] 
r 1.116455233 _0_ MAC  --- 0 CTS 38 [33d4 0 0 0] 
s 1.116465233 _0_ MAC  --- 4 tcp 1618 [13a 1 0 800] ------- [0:0 1:0 32 1] [1 0] 0 0
r 1.129409377 _1_ MAC  --- 4 tcp 1560 [13a 1 0 800] ------- [0:0 1:0 32 1] [1 0] 1 0
s 1.129419377 _1_ MAC  --- 0 ACK 38 [0 0 0 0] 
r 1.129434377 _1_ AGT  --- 4 tcp 1560 [13a 1 0 800] ------- [0:0 1:0 32 1] [1 0] 1 0
s 1.129434377 _1_ AGT  --- 6 ack 40 [0 0 0 0] ------- [1:0 0:0 32 0] [1 0] 0 0
r 1.129434377 _1_ RTR  --- 6 ack 40 [0 0 0 0] ------- [1:0 0:0 32 0] [1 0] 0 0
s 1.129434377 _1_ RTR  --- 6 ack 60 [0 0 0 0] ------- [1:0 0:0 32 0] [1 0] 0 0
r 1.129723530 _0_ MAC  --- 0 ACK 38 [0 0 0 0] 
s 1.130113530 _0_ MAC  --- 0 RTS 44 [350e 1 0 0] 
r 1.130465683 _1_ MAC  --- 0 RTS 44 [350e 1 0 0] 
s 1.130475683 _1_ MAC  --- 0 CTS 38 [33d4 0 0 0] 
r 1.130779837 _0_ MAC  --- 0 CTS 38 [33d4 0 0 0] 
s 1.130789837 _0_ MAC  --- 5 tcp 1618 [13a 1 0 800] ------- [0:0 1:0 32 1] [2 0] 0 0
r 1.143733990 _1_ MAC  --- 5 tcp 1560 [13a 1 0 800] ------- [0:0 1:0 32 1] [2 0] 1 0
s 1.143743990 _1_ MAC  --- 0 ACK 38 [0 0 0 0] 
r 1.143758990 _1_ AGT  --- 5 tcp 1560 [13a 1 0 800] ------- [0:0 1:0 32 1] [2 0] 1 0
s 1.143758990 _1_ AGT  --- 7 ack 40 [0 0 0 0] ------- [1:0 0:0 32 0] [2 0] 0 0
r 1.143758990 _1_ RTR  --- 7 ack 40 [0 0 0 0] ------- [1:0 0:0 32 0] [2 0] 0 0
s 1.143758990 _1_ RTR  --- 7 ack 60 [0 0 0 0] ------- [1:0 0:0 32 0] [2 0] 0 0
r 1.144048152 _0_ MAC  --- 0 ACK 38 [0 0 0 0] 
s 1.144197990 _1_ MAC  --- 0 RTS 44 [62e 0 1 0] 
r 1.144550153 _0_ MAC  --- 0 RTS 44 [62e 0 1 0] 
s 1.144560153 _0_ MAC  --- 0 CTS 38 [4f4 1 0 0] 
r 1.144864315 _1_ MAC  --- 0 CTS 38 [4f4 1 0 0] 
s 1.144874315 _1_ MAC  --- 6 ack 118 [13a 0 1 800] ------- [1:0 0:0 32 0] [1 0] 0 0
r 1.145818478 _0_ MAC  --- 6 ack 60 [13a 0 1 800] ------- [1:0 0:0 32 0] [1 0] 1 0
s 1.145828478 _0_ MAC  --- 0 ACK 38 [0 1 0 0] 
r 1.145843478 _0_ AGT  --- 6 ack 60 [13a 0 1 800] ------- [1:0 0:0 32 0] [1 0] 1 0
s 1.145843478 _0_ AGT  --- 8 tcp 1540 [0 0 0 0] ------- [0:0 1:0 32 0] [3 0] 0 0
r 1.145843478 _0_ RTR  --- 8 tcp 1540 [0 0 0 0] ------- [0:0 1:0 32 0] [3 0] 0 0
s 1.145843478 _0_ RTR  --- 8 tcp 1560 [0 0 0 0] ------- [0:0 1:0 32 1] [3 0] 0 0
s 1.145843478 _0_ AGT  --- 9 tcp 1540 [0 0 0 0] ------- [0:0 1:0 32 0] [4 0] 0 0
r 1.145843478 _0_ RTR  --- 9 tcp 1540 [0 0 0 0] ------- [0:0 1:0 32 0] [4 0] 0 0
s 1.145843478 _0_ RTR  --- 9 tcp 1560 [0 0 0 0] ------- [0:0 1:0 32 1] [4 0] 0 0
r 1.146132642 _1_ MAC  --- 0 ACK 38 [0 1 0 0] 
s 1.146382642 _1_ MAC  --- 0 RTS 44 [62e 0 1 0] 
r 1.146734806 _0_ MAC  --- 0 RTS 44 [62e 0 1 0] 
s 1.146744806 _0_ MAC  --- 0 CTS 38 [4f4 1 0 0] 
r 1.147048970 _1_ MAC  --- 0 CTS 38 [4f4 1 0 0] 
s 1.147058970 _1_ MAC  --- 7 ack 118 [13a 0 1 800] ------- [1:0 0:0 32 0] [2 0] 0 0
r 1.148003135 _0_ MAC  --- 7 ack 60 [13a 0 1 800] ------- [1:0 0:0 32 0] [2 0] 1 0
s 1.148013135 _0_ MAC  --- 0 ACK 38 [0 1 0 0] 
r 1.148028135 _0_ AGT  --- 7 ack 60 [13a 0 1 800] ------- [1:0 0:0 32 0] [2 0] 1 0
s 1.148028135 _0_ AGT  --- 10 tcp 1540 [0 0 0 0] ------- [0:0 1:0 32 0] [5 0] 0 0
r 1.148028135 _0_ RTR  --- 10 tcp 1540 [0 0 0 0] ------- [0:0 1:0 32 0] [5 0] 0 0
s 1.148028135 _0_ RTR  --- 10 tcp 1560 [0 0 0 0] ------- [0:0 1:0 32 1] [5 0] 0 0
s 1.148028135 _0_ AGT  --- 11 tcp 1540 [0 0 0 0] ------- [0:0 1:0 32 0] [6 0] 0 0
r 1.148028135 _0_ RTR  --- 11 tcp 1540 [0 0 0 0] ------- [0:0 1:0 32 0] [6 0] 0 0
s 1.148028135 _0_ RTR  --- 11 tcp 1560 [0 0 0 0] ------- [0:0 1:0 32 1] [6 0] 0 0
r 1.148317300 _1_ MAC  --- 0 ACK 38 [0 1 0 0] 
s 1.148387135 _0_ MAC  --- 0 RTS 44 [350e 1 0 0] 
r 1.148739300 _1_ MAC  --- 0 RTS 44 [350e 1 0 0] 
s 1.148749300 _1_ MAC  --- 0 CTS 38 [33d4 0 0 0] 
r 1.149053465 _0_ MAC  --- 0 CTS 38 [33d4 0 0 0] 
s 1.149063465 _0_ MAC  --- 8 tcp 1618 [13a 1 0 800] ------- [0:0 1:0 32 1] [3 0] 0 0
r 1.162007631 _1_ MAC  --- 8 tcp 1560 [13a 1 0 800] ------- [0:0 1:0 32 1] [3 0] 1 0
s 1.162017631 _1_ MAC  --- 0 ACK 38 [0 0 0 0] 
r 1.162032631 _1_ AGT  --- 8 tcp 1560 [13a 1 0 800] ------- [0:0 1:0 32 1] [3 0] 1 0
s 1.162032631 _1_ AGT  --- 12 ack 40 [0 0 0 0] ------- [1:0 0:0 32 0] [3 0] 0 0
r 1.162032631 _1_ RTR  --- 12 ack 40 [0 0 0 0] ------- [1:0 0:0 32 0] [3 0] 0 0
s 1.162032631 _1_ RTR  --- 12 ack 60 [0 0 0 0] ------- [1:0 0:0 32 0] [3 0] 0 0
r 1.162321806 _0_ MAC  --- 0 ACK 38 [0 0 0 0] 
s 1.162391806 _0_ MAC  --- 0 RTS 44 [350e 1 0 0] 
r 1.162743980 _1_ MAC  --- 0 RTS 44 [350e 1 0 0] 
s 1.162753980 _1_ MAC  --- 0 CTS 38 [33d4 0 0 0] 
r 1.163058155 _0_ MAC  --- 0 CTS 38 [33d4 0 0 0] 
s 1.163068155 _0_ MAC  --- 9 tcp 1618 [13a 1 0 800] ------- [0:0 1:0 32 1] [4 0] 0 0
r 1.176012330 _1_ MAC  --- 9 tcp 1560 [13a 1 0 800] ------- [0:0 1:0 32 1] [4 0] 1 0
s 1.176022330 _1_ MAC  --- 0 ACK 38 [0 0 0 0] 
r 1.176037330 _1_ AGT  --- 9 tcp 1560 [13a 1 0 800] ------- [0:0 1:0 32 1] [4 0] 1 0
s 1.176037330 _1_ AGT  --- 13 ack 40 [0 0 0 0] ------- [1:0 0:0 32 0] [4 0] 0 0
r 1.176037330 _1_ RTR  --- 13 ack 40 [0 0 0 0] ------- [1:0 0:0 32 0] [4 0] 0 0
s 1.176037330 _1_ RTR  --- 13 ack 60 [0 0 0 0] ------- [1:0 0:0 32 0] [4 0] 0 0
r 1.176326514 _0_ MAC  --- 0 ACK 38 [0 0 0 0] 
s 1.176556330 _1_ MAC  --- 0 RTS 44 [62e 0 1 0] 
r 1.176908514 _0_ MAC  --- 0 RTS 44 [62e 0 1 0] 
s 1.176918514 _0_ MAC  --- 0 CTS 38 [4f4 1 0 0] 
r 1.177222699 _1_ MAC  --- 0 CTS 38 [4f4 1 0 0] 
s 1.177232699 _1_ MAC  --- 12 ack 118 [13a 0 1 800] ------- [1:0 0:0 32 0] [3 0] 0 0
r 1.178176883 _0_ MAC  --- 12 ack 60 [13a 0 1 800] ------- [1:0 0:0 32 0] [3 0] 1 0
s 1.178186883 _0_ MAC  --- 0 ACK 38 [0 1 0 0] 
r 1.178201883 _0_ AGT  --- 12 ack 60 [13a 0 1 800] ------- [1:0 0:0 32 0] [3 0] 1 0
s 1.178201883 _0_ AGT  --- 14 tcp 1540 [0 0 0 0] ------- [0:0 1:0 32 0] [7 0] 0 0
r 1.178201883 _0_ RTR  --- 14 tcp 1540 [0 0 0 0] ------- [0:0 1:0 32 0] [7 0] 0 0
s 1.178201883 _0_ RTR  --- 14 tcp 1560 [0 0 0 0] ------- [0:0 1:0 32 1] [7 0] 0 0
s 1.178201883 _0_ AGT  --- 15 tcp 1540 [0 0 0 0] ------- [0:0 1:0 32 0] [8 0] 0 0
r 1.178201883 _0_ RTR  --- 15 tcp 1540 [0 0 0 0] ------- [0:0 1:0 32 0] [8 0] 0 0
s 1.178201883 _0_ RTR  --- 15 tcp 1560 [0 0 0 0] ------- [0:0 1:0 32 1] [8 0] 0 0
r 1.178491068 _1_ MAC  --- 0 ACK 38 [0 1 0 0] 
s 1.178600883 _0_ MAC  --- 0 RTS 44 [350e 1 0 0] 
r 1.178953069 _1_ MAC  --- 0 RTS 44 [350e 1 0 0] 
s 1.178963069 _1_ MAC  --- 0 CTS 38 [33d4 0 0 0] 
r 1.179267254 _0_ MAC  --- 0 CTS 38 [33d4 0 0 0] 
s 1.179277254 _0_ MAC  --- 10 tcp 1618 [13a 1 0 800] ------- [0:0 1:0 32 1] [5 0] 0 0
r 1.192221440 _1_ MAC  --- 10 tcp 1560 [13a 1 0 800] ------- [0:0 1:0 32 1] [5 0] 1 0
s 1.192231440 _1_ MAC  --- 0 ACK 38 [0 0 0 0] 
r 1.192246440 _1_ AGT  --- 10 tcp 1560 [13a 1 0 800] ------- [0:0 1:0 32 1] [5 0] 1 0
s 1.192246440 _1_ AGT  --- 16 ack 40 [0 0 0 0] ------- [1:0 0:0 32 0] [5 0] 0 0
r 1.192246440 _1_ RTR  --- 16 ack 40 [0 0 0 0] ------- [1:0 0:0 32 0] [5 0] 0 0
s 1.192246440 _1_ RTR  --- 16 ack 60 [0 0 0 0] ------- [1:0 0:0 32 0] [5 0] 0 0
r 1.192535635 _0_ MAC  --- 0 ACK 38 [0 0 0 0] 
s 1.192765635 _0_ MAC  --- 0 RTS 44 [350e 1 0 0] 
r 1.193117829 _1_ MAC  --- 0 RTS 44 [350e 1 0 0] 
s 1.193127829 _1_ MAC  --- 0 CTS 38 [33d4 0 0 0] 
r 1.193432025 _0_ MAC  --- 0 CTS 38 [33d4 0 0 0] 
s 1.193442025 _0_ MAC  --- 11 tcp 1618 [13a 1 0 800] ------- [0:0 1:0 32 1] [6 0] 0 0
r 1.206386220 _1_ MAC  --- 11 tcp 1560 [13a 1 0 800] ------- [0:0 1:0 32 1] [6 0] 1 0
s 1.206396220 _1_ MAC  --- 0 ACK 38 [0 0 0 0] 
r 1.206411220 _1_ AGT  --- 11 tcp 1560 [13a 1 0 800] ------- [0:0 1:0 32 1] [6 0] 1 0
s 1.206411220 _1_ AGT  --- 17 ack 40 [0 0 0 0] ------- [1:0 0:0 32 0] [6 0] 0 0
r 1.206411220 _1_ RTR  --- 17 ack 40 [0 0 0 0] ------- [1:0 0:0 32 0] [6 0] 0 0
s 1.206411220 _1_ RTR  --- 17 ack 60 [0 0 0 0] ------- [1:0 0:0 32 0] [6 0] 0 0
r 1.206700424 _0_ MAC  --- 0 ACK 38 [0 0 0 0] 
s 1.206950220 _1_ MAC  --- 0 RTS 44 [62e 0 1 0] 
r 1.207302424 _0_ MAC  --- 0 RTS 44 [62e 0 1 0] 
s 1.207312424 _0_ MAC  --- 0 CTS 38 [4f4 1 0 0] 
r 1.207616629 _1_ MAC  --- 0 CTS 38 [4f4 1 0 0] 
s 1.207626629 _1_ MAC  --- 13 ack 118 [13a 0 1 800] ------- [1:0 0:0 32 0] [4 0] 0 0
r 1.208570834 _0_ MAC  --- 13 ack 60 [13a 0 1 800] ------- [1:0 0:0 32 0] [4 0] 1 0
s 1.208580834 _0_ MAC  --- 0 ACK 38 [0 1 0 0] 
r 1.208595834 _0_ AGT  --- 13 ack 60 [13a 0 1 800] ------- [1:0 0:0 32 0] [4 0] 1 0
s 1.208595834 _0_ AGT  --- 18 tcp 1540 [0 0 0 0] ------- [0:0 1:0 32 0] [9 0] 0 0
r 1.208595834 _0_ RTR  --- 18 tcp 1540 [0 0 0 0] ------- [0:0 1:0 32 0] [9 0] 0 0
s 1.208595834 _0_ RTR  --- 18 tcp 1560 [0 0 0 0] ------- [0:0 1:0 32 1] [9 0] 0 0
s 1.208595834 _0_ AGT  --- 19 tcp 1540 [0 0 0 0] ------- [0:0 1:0 32 0] [10 0] 0 0
r 1.208595834 _0_ RTR  --- 19 tcp 1540 [0 0 0 0] ------- [0:0 1:0 32 0] [10 0] 0 0
s 1.208595834 _0_ RTR  --- 19 tcp 1560 [0 0 0 0] ------- [0:0 1:0 32 1] [10 0] 0 0
r 1.208885039 _1_ MAC  --- 0 ACK 38 [0 1 0 0] 
s 1.209314834 _0_ MAC  --- 0 RTS 44 [350e 1 0 0] 
r 1.209667040 _1_ MAC  --- 0 RTS 44 [350e 1 0 0] 
s 1.209677040 _1_ MAC  --- 0 CTS 38 [33d4 0 0 0] 
r 1.209981246 _0_ MAC  --- 0 CTS 38 [33d4 0 0 0] 
s 1.209991246 _0_ MAC  --- 14 tcp 1618 [13a 1 0 800] ------- [0:0 1:0 32 1] [7 0] 0 0
r 1.222935452 _1_ MAC  --- 14 tcp 1560 [13a 1 0 800] ------- [0:0 1:0 32 1] [7 0] 1 0
s 1.222945452 _1_ MAC  --- 0 ACK 38 [0 0 0 0] 
r 1.222960452 _1_ AGT  --- 14 tcp 1560 [13a 1 0 800] ------- [0:0 1:0 32 1] [7 0] 1 0
s 1.222960452 _1_ AGT  --- 20 ack 40 [0 0 0 0] ------- [1:0 0:0 32 0] [7 0] 0 0
r 1.222960452 _1_ RTR  --- 20 ack 40 [0 0 0 0] ------- [1:0 0:0 32 0] [7 0] 0 0
s 1.222960452 _1_ RTR  --- 20 ack 60 [0 0 0 0] ------- [1:0 0:0 32 0] [7 0] 0 0
r 1.223249667 _0_ MAC  --- 0 ACK 38 [0 0 0 0] 
s 1.223319452 _1_ MAC  --- 0 RTS 44 [62e 0 1 0] 
r 1.223671667 _0_ MAC  --- 0 RTS 44 [62e 0 1 0] 
s 1.223681667 _0_ MAC  --- 0 CTS 38 [4f4 1 0 0] 
r 1.223985883 _1_ MAC  --- 0 CTS 38 [4f4 1 0 0] 
s 1.223995883 _1_ MAC  --- 16 ack 118 [13a 0 1 800] ------- [1:0 0:0 32 0] [5 0] 0 0
r 1.224940099 _0_ MAC  --- 16 ack 60 [13a 0 1 800] ------- [1:0 0:0 32 0] [5 0] 1 0
s 1.224950099 _0_ MAC  --- 0 ACK 38 [0 1 0 0] 
r 1.224965099 _0_ AGT  --- 16 ack 60 [13a 0 1 800] ------- [1:0 0:0 32 0] [5 0] 1 0
s 1.224965099 _0_ AGT  --- 21 tcp 1540 [0 0 0 0] ------- [0:0 1:0 32 0] [11 0] 0 0
r 1.224965099 _0_ RTR  --- 21 tcp 1540 [0 0 0 0] ------- [0:0 1:0 32 0] [11 0] 0 0
s 1.224965099 _0_ RTR  --- 21 tcp 1560 [0 0 0 0] ------- [0:0 1:0 32 1] [11 0] 0 0
s 1.224965099 _0_ AGT  --- 22 tcp 1540 [0 0 0 0] ------- [0:0 1:0 32 0] [12 0] 0 0
r 1.224965099 _0_ RTR  --- 22 tcp 1540 [0 0 0 0] ------- [0:0 1:0 32 0] [12 0] 0 0
s 1.224965099 _0_ RTR  --- 22 tcp 1560 [0 0 0 0] ------- [0:0 1:0 32 1] [12 0] 0 0
r 1.225254315 _1_ MAC  --- 0 ACK 38 [0 1 0 0] 
s 1.225664315 _1_ MAC  --- 0 RTS 44 [62e 0 1 0] 
r 1.226016532 _0_ MAC  --- 0 RTS 44 [62e 0 1 0] 
s 1.226026532 _0_ MAC  --- 0 CTS 38 [4f4 1 0 0] 
r 1.226330749 _1_ MAC  --- 0 CTS 38 [4f4 1 0 0] 
s 1.226340749 _1_ MAC  --- 17 ack 118 [13a 0 1 800] ------- [1:0 0:0 32 0] [6 0] 0 0
r 1.227284966 _0_ MAC  --- 17 ack 60 [13a 0 1 800] ------- [1:0 0:0 32 0] [6 0] 1 0
s 1.227294966 _0_ MAC  --- 0 ACK 38 [0 1 0 0] 
r 1.227309966 _0_ AGT  --- 17 ack 60 [13a 0 1 800] ------- [1:0 0:0 32 0] [6 0] 1 0
s 1.227309966 _0_ AGT  --- 23 tcp 1540 [0 0 0 0] ------- [0:0 1:0 32 0] [13 0] 0 0
r 1.227309966 _0_ RTR  --- 23 tcp 1540 [0 0 0 0] ------- [0:0 1:0 32 0] [13 0] 0 0
s 1.227309966 _0_ RTR  --- 23 tcp 1560 [0 0 0 0] ------- [0:0 1:0 32 1] [13 0] 0 0
s 1.227309966 _0_ AGT  --- 24 tcp 1540 [0 0 0 0] ------- [0:0 1:0 32 0] [14 0] 0 0
r 1.227309966 _0_ RTR  --- 24 tcp 1540 [0 0 0 0] ------- [0:0 1:0 32 0] [14 0] 0 0
s 1.227309966 _0_ RTR  --- 24 tcp 1560 [0 0 0 0] ------- [0:0 1:0 32 1] [14 0] 0 0
r 1.227599184 _1_ MAC  --- 0 ACK 38 [0 1 0 0] 
s 1.227689184 _1_ MAC  --- 0 RTS 44 [62e 0 1 0] 
r 1.228041402 _0_ MAC  --- 0 RTS 44 [62e 0 1 0] 
s 1.228051402 _0_ MAC  --- 0 CTS 38 [4f4 1 0 0] 
r 1.228355620 _1_ MAC  --- 0 CTS 38 [4f4 1 0 0] 
s 1.228365620 _1_ MAC  --- 20 ack 118 [13a 0 1 800] ------- [1:0 0:0 32 0] [7 0] 0 0
r 1.229309839 _0_ MAC  --- 20 ack 60 [13a 0 1 800] ------- [1:0 0:0 32 0] [7 0] 1 0
s 1.229319839 _0_ MAC  --- 0 ACK 38 [0 1 0 0] 
r 1.229334839 _0_ AGT  --- 20 ack 60 [13a 0 1 800] ------- [1:0 0:0 32 0] [7 0] 1 0
s 1.229334839 _0_ AGT  --- 25 tcp 1540 [0 0 0 0] ------- [0:0 1:0 32 0] [15 0] 0 0
r 1.229334839 _0_ RTR  --- 25 tcp 1540 [0 0 0 0] ------- [0:0 1:0 32 0] [15 0] 0 0
s 1.229334839 _0_ RTR  --- 25 tcp 1560 [0 0 0 0] ------- [0:0 1:0 32 1] [15 0] 0 0
s 1.229334839 _0_ AGT  --- 26 tcp 1540 [0 0 0 0] ------- [0:0 1:0 32 0] [16 0] 0 0
r 1.229334839 _0_ RTR  --- 26 tcp 1540 [0 0 0 0] ------- [0:0 1:0 32 0] [16 0] 0 0
s 1.229334839 _0_ RTR  --- 26 tcp 1560 [0 0 0 0] ------- [0:0 1:0 32 1] [16 0] 0 0
r 1.229624058 _1_ MAC  --- 0 ACK 38 [0 1 0 0] 
s 1.229793839 _0_ MAC  --- 0 RTS 44 [350e 1 0 0] 
r 1.230146059 _1_ MAC  --- 0 RTS 44 [350e 1 0 0] 
s 1.230156059 _1_ MAC  --- 0 CTS 38 [33d4 0 0 0] 
r 1.230460278 _0_ MAC  --- 0 CTS 38 [33d4 0 0 0] 
s 1.230470278 _0_ MAC  --- 15 tcp 1618 [13a 1 0 800] ------- [0:0 1:0 32 1] [8 0] 0 0
r 1.243414498 _1_ MAC  --- 15 tcp 1560 [13a 1 0 800] ------- [0:0 1:0 32 1] [8 0] 1 0
s 1.243424498 _1_ MAC  --- 0 ACK 38 [0 0 0 0] 
r 1.243439498 _1_ AGT  --- 15 tcp 1560 [13a 1 0 800] ------- [0:0 1:0 32 1] [8 0] 1 0
s 1.243439498 _1_ AGT  --- 27 ack 40 [0 0 0 0] ------- [1:0 0:0 32 0] [8 0] 0 0
r 1.243439498 _1_ RTR  --- 27 ack 40 [0 0 0 0] ------- [1:0 0:0 32 0] [8 0] 0 0
s 1.243439498 _1_ RTR  --- 27 ack 60 [0 0 0 0] ------- [1:0 0:0 32 0] [8 0] 0 0
r 1.243728727 _0_ MAC  --- 0 ACK 38 [0 0 0 0] 
s 1.243958498 _1_ MAC  --- 0 RTS 44 [62e 0 1 0] 
r 1.244310727 _0_ MAC  --- 0 RTS 44 [62e 0 1 0] 
s 1.244320727 _0_ MAC  --- 0 CTS 38 [4f4 1 0 0] 
r 1.244624957 _1_ MAC  --- 0 CTS 38 [4f4 1 0 0] 
s 1.244634957 _1_ MAC  --- 27 ack 118 [13a 0 1 800] ------- [1:0 0:0 32 0] [8 0] 0 0
r 1.245579186 _0_ MAC  --- 27 ack 60 [13a 0 1 800] ------- [1:0 0:0 32 0] [8 0] 1 0
s 1.245589186 _0_ MAC  --- 0 ACK 38 [0 1 0 0] 
r 1.245604186 _0_ AGT  --- 27 ack 60 [13a 0 1 800] ------- [1:0 0:0 32 0] [8 0] 1 0
s 1.245604186 _0_ AGT  --- 28 tcp 1540 [0 0 0 0] ------- [0:0 1:0 32 0] [17 0] 0 0
r 1.245604186 _0_ RTR  --- 28 tcp 1540 [0 0 0 0] ------- [0:0 1:0 32 0] [17 0] 0 0
s 1.245604186 _0_ RTR  --- 28 tcp 1560 [0 0 0 0] ------- [0:0 1:0 32 1] [17 0] 0 0
s 1.245604186 _0_ AGT  --- 29 tcp 1540 [0 0 0 0] ------- [0:0 1:0 32 0] [18 0] 0 0
r 1.245604186 _0_ RTR  --- 29 tcp 1540 [0 0 0 0] ------- [0:0 1:0 32 0] [18 0] 0 0
s 1.245604186 _0_ RTR  --- 29 tcp 1560 [0 0 0 0] ------- [0:0 1:0 32 1] [18 0] 0 0
r 1.245893416 _1_ MAC  --- 0 ACK 38 [0 1 0 0] 
s 1.246123186 _0_ MAC  --- 0 RTS 44 [350e 1 0 0] 
r 1.246475417 _1_ MAC  --- 0 RTS 44 [350e 1 0 0] 
s 1.246485417 _1_ MAC  --- 0 CTS 38 [33d4 0 0 0] 
r 1.246789647 _0_ MAC  --- 0 CTS 38 [33d4 0 0 0] 
s 1.246799647 _0_ MAC  --- 18 tcp 1618 [13a 1 0 800] ------- [0:0 1:0 32 1] [9 0] 0 0
r 1.259743878 _1_ MAC  --- 18 tcp 1560 [13a 1 0 800] ------- [0:0 1:0 32 1] [9 0] 1 0
s 1.259753878 _1_ MAC  --- 0 ACK 38 [0 0 0 0] 
r 1.259768878 _1_ AGT  --- 18 tcp 1560 [13a 1 0 800] ------- [0:0 1:0 32 1] [9 0] 1 0
s 1.259768878 _1_ AGT  --- 30 ack 40 [0 0 0 0] ------- [1:0 0:0 32 0] [9 0] 0 0
r 1.259768878 _1_ RTR  --- 30 ack 40 [0 0 0 0] ------- [1:0 0:0 32 0] [9 0] 0 0
s 1.259768878 _1_ RTR  --- 30 ack 60 [0 0 0 0] ------- [1:0 0:0 32 0] [9 0] 0 0
r 1.260058118 _0_ MAC  --- 0 ACK 38 [0 0 0 0] 
s 1.260187878 _1_ MAC  --- 0 RTS 44 [62e 0 1 0] 
r 1.260540118 _0_ MAC  --- 0 RTS 44 [62e 0 1 0] 
s 1.260550118 _0_ MAC  --- 0 CTS 38 [4f4 1 0 0] 
r 1.260854358 _1_ MAC  --- 0 CTS 38 [4f4 1 0 0] 
s 1.260864358 _1_ MAC  --- 30 ack 118 [13a 0 1 800] ------- [1:0 0:0 32 0] [9 0] 0 0
r 1.261808598 _0_ MAC  --- 30 ack 60 [13a 0 1 800] ------- [1:0 0:0 32 0] [9 0] 1 0
s 1.261818598 _0_ MAC  --- 0 ACK 38 [0 1 0 0] 
r 1.261833598 _0_ AGT  --- 30 ack 60 [13a 0 1 800] ------- [1:0 0:0 32 0] [9 0] 1 0
s 1.261833598 _0_ AGT  --- 31 tcp 1540 [0 0 0 0] ------- [0:0 1:0 32 0] [19 0] 0 0
r 1.261833598 _0_ RTR  --- 31 tcp 1540 [0 0 0 0] ------- [0:0 1:0 32 0] [19 0] 0 0
s 1.261833598 _0_ RTR  --- 31 tcp 1560 [0 0 0 0] ------- [0:0 1:0 32 1] [19 0] 0 0
s 1.261833598 _0_ AGT  --- 32 tcp 1540 [0 0 0 0] ------- [0:0 1:0 32 0] [20 0] 0 0
r 1.261833598 _0_ RTR  --- 32 tcp 1540 [0 0 0 0] ------- [0:0 1:0 32 0] [20 0] 0 0
s 1.261833598 _0_ RTR  --- 32 tcp 1560 [0 0 0 0] ------- [0:0 1:0 32 1] [20 0] 0 0
r 1.262122839 _1_ MAC  --- 0 ACK 38 [0 1 0 0] 
s 1.262372598 _0_ MAC  --- 0 RTS 44 [350e 1 0 0] 
r 1.262724840 _1_ MAC  --- 0 RTS 44 [350e 1 0 0] 
s 1.262734840 _1_ MAC  --- 0 CTS 38 [33d4 0 0 0] 
r 1.263039081 _0_ MAC  --- 0 CTS 38 [33d4 0 0 0] 
s 1.263049081 _0_ MAC  --- 19 tcp 1618 [13a 1 0 800] ------- [0:0 1:0 32 1] [10 0] 0 0
r 1.275993323 _1_ MAC  --- 19 tcp 1560 [13a 1 0 800] ------- [0:0 1:0 32 1] [10 0] 1 0
s 1.276003323 _1_ MAC  --- 0 ACK 38 [0 0 0 0] 
r 1.276018323 _1_ AGT  --- 19 tcp 1560 [13a 1 0 800] ------- [0:0 1:0 32 1] [10 0] 1 0
s 1.276018323 _1_ AGT  --- 33 ack 40 [0 0 0 0] ------- [1:0 0:0 32 0] [10 0] 0 0
r 1.276018323 _1_ RTR  --- 33 ack 40 [0 0 0 0] ------- [1:0 0:0 32 0] [10 0] 0 0
s 1.276018323 _1_ RTR  --- 33 ack 60 [0 0 0 0] ------- [1:0 0:0 32 0] [10 0] 0 0
r 1.276307573 _0_ MAC  --- 0 ACK 38 [0 0 0 0] 
s 1.276457323 _1_ MAC  --- 0 RTS 44 [62e 0 1 0] 
r 1.276809574 _0_ MAC  --- 0 RTS 44 [62e 0 1 0] 
s 1.276819574 _0_ MAC  --- 0 CTS 38 [4f4 1 0 0] 
r 1.277123824 _1_ MAC  --- 0 CTS 38 [4f4 1 0 0] 
s 1.277133824 _1_ MAC  --- 33 ack 118 [13a 0 1 800] ------- [1:0 0:0 32 0] [10 0] 0 0
r 1.278078076 _0_ MAC  --- 33 ack 60 [13a 0 1 800] ------- [1:0 0:0 32 0] [10 0] 1 0
s 1.278088076 _0_ MAC  --- 0 ACK 38 [0 1 0 0] 
r 1.278103076 _0_ AGT  --- 33 ack 60 [13a 0 1 800] ------- [1:0 0:0 32 0] [10 0] 1 0
s 1.278103076 _0_ AGT  --- 34 tcp 1540 [0 0 0 0] ------- [0:0 1:0 32 0] [21 0] 0 0
r 1.278103076 _0_ RTR  --- 34 tcp 1540 [0 0 0 0] ------- [0:0 1:0 32 0] [21 0] 0 0
s 1.278103076 _0_ RTR  --- 34 tcp 1560 [0 0 0 0] ------- [0:0 1:0 32 1] [21 0] 0 0
s 1.278103076 _0_ AGT  --- 35 tcp 1540 [0 0 0 0] ------- [0:0 1:0 32 0] [22 0] 0 0
r 1.278103076 _0_ RTR  --- 35 tcp 1540 [0 0 0 0] ------- [0:0 1:0 32 0] [22 0] 0 0
s 1.278103076 _0_ RTR  --- 35 tcp 1560 [0 0 0 0] ------- [0:0 1:0 32 1] [22 0] 0 0
r 1.278392327 _1_ MAC  --- 0 ACK 38 [0 1 0 0] 
s 1.278862076 _0_ MAC  --- 0 RTS 44 [350e 1 0 0] 
r 1.279214328 _1_ MAC  --- 0 RTS 44 [350e 1 0 0] 
s 1.279224328 _1_ MAC  --- 0 CTS 38 [33d4 0 0 0] 
r 1.279528580 _0_ MAC  --- 0 CTS 38 [33d4 0 0 0] 
s 1.279538580 _0_ MAC  --- 21 tcp 1618 [13a 1 0 800] ------- [0:0 1:0 32 1] [11 0] 0 0
r 1.292482833 _1_ MAC  --- 21 tcp 1560 [13a 1 0 800] ------- [0:0 1:0 32 1] [11 0] 1 0
s 1.292492833 _1_ MAC  --- 0 ACK 38 [0 0 0 0] 
r 1.292507833 _1_ AGT  --- 21 tcp 1560 [13a 1 0 800] ------- [0:0 1:0 32 1] [11 0] 1 0
s 1.292507833 _1_ AGT  --- 36 ack 40 [0 0 0 0] ------- [1:0 0:0 32 0] [11 0] 0 0
r 1.292507833 _1_ RTR  --- 36 ack 40 [0 0 0 0] ------- [1:0 0:0 32 0] [11 0] 0 0
s 1.292507833 _1_ RTR  --- 36 ack 60 [0 0 0 0] ------- [1:0 0:0 32 0] [11 0] 0 0
r 1.292797094 _0_ MAC  --- 0 ACK 38 [0 0 0 0] 
s 1.293046833 _1_ MAC  --- 0 RTS 44 [62e 0 1 0] 
r 1.293399095 _0_ MAC  --- 0 RTS 44 [62e 0 1 0] 
s 1.293409095 _0_ MAC  --- 0 CTS 38 [4f4 1 0 0] 
r 1.293713357 _1_ MAC  --- 0 CTS 38 [4f4 1 0 0] 
s 1.293723357 _1_ MAC  --- 36 ack 118 [13a 0 1 800] ------- [1:0 0:0 32 0] [11 0] 0 0
r 1.294667619 _0_ MAC  --- 36 ack 60 [13a 0 1 800] ------- [1:0 0:0 32 0] [11 0] 1 0
s 1.294677619 _0_ MAC  --- 0 ACK 38 [0 1 0 0] 
r 1.294692619 _0_ AGT  --- 36 ack 60 [13a 0 1 800] ------- [1:0 0:0 32 0] [11 0] 1 0
s 1.294692619 _0_ AGT  --- 37 tcp 1540 [0 0 0 0] ------- [0:0 1:0 32 0] [23 0] 0 0
r 1.294692619 _0_ RTR  --- 37 tcp 1540 [0 0 0 0] ------- [0:0 1:0 32 0] [23 0] 0 0
s 1.294692619 _0_ RTR  --- 37 tcp 1560 [0 0 0 0] ------- [0:0 1:0 32 1] [23 0] 0 0
s 1.294692619 _0_ AGT  --- 38 tcp 1540 [0 0 0 0] ------- [0:0 1:0 32 0] [24 0] 0 0
r 1.294692619 _0_ RTR  --- 38 tcp 1540 [0 0 0 0] ------- [0:0 1:0 32 0] [24 0] 0 0
s 1.294692619 _0_ RTR  --- 38 tcp 1560 [0 0 0 0] ------- [0:0 1:0 32 1] [24 0] 0 0
r 1.294981882 _1_ MAC  --- 0 ACK 38 [0 1 0 0] 
s 1.295411619 _0_ MAC  --- 0 RTS 44 [350e 1 0 0] 
r 1.295763882 _1_ MAC  --- 0 RTS 44 [350e 1 0 0] 
s 1.295773882 _1_ MAC  --- 0 CTS 38 [33d4 0 0 0] 
r 1.296078146 _0_ MAC  --- 0 CTS 38 [33d4 0 0 0] 
s 1.296088146 _0_ MAC  --- 22 tcp 1618 [13a 1 0 800] ------- [0:0 1:0 32 1] [12 0] 0 0
r 1.309032410 _1_ MAC  --- 22 tcp 1560 [13a 1 0 800] ------- [0:0 1:0 32 1] [12 0] 1 0
s 1.309042410 _1_ MAC  --- 0 ACK 38 [0 0 0 0] 
r 1.309057410 _1_ AGT  --- 22 tcp 1560 [13a 1 0 800] ------- [0:0 1:0 32 1] [12 0] 1 0
s 1.309057410 _1_ AGT  --- 39 ack 40 [0 0 0 0] ------- [1:0 0:0 32 0] [12 0] 0 0
r 1.309057410 _1_ RTR  --- 39 ack 40 [0 0 0 0] ------- [1:0 0:0 32 0] [12 0] 0 0
s 1.309057410 _1_ RTR  --- 39 ack 60 [0 0 0 0] ------- [1:0 0:0 32 0] [12 0] 0 0
r 1.309346682 _0_ MAC  --- 0 ACK 38 [0 0 0 0] 
s 1.309516410 _1_ MAC  --- 0 RTS 44 [62e 0 1 0] 
r 1.309868682 _0_ MAC  --- 0 RTS 44 [62e 0 1 0] 
s 1.309878682 _0_ MAC  --- 0 CTS 38 [4f4 1 0 0] 
r 1.310182955 _1_ MAC  --- 0 CTS 38 [4f4 1 0 0] 
s 1.310192955 _1_ MAC  --- 39 ack 118 [13a 0 1 800] ------- [1:0 0:0 32 0] [12 0] 0 0
r 1.311137228 _0_ MAC  --- 39 ack 60 [13a 0 1 800] ------- [1:0 0:0 32 0] [12 0] 1 0
s 1.311147228 _0_ MAC  --- 0 ACK 38 [0 1 0 0] 
r 1.311162228 _0_ AGT  --- 39 ack 60 [13a 0 1 800] ------- [1:0 0:0 32 0] [12 0] 1 0
s 1.311162228 _0_ AGT  --- 40 tcp 1540 [0 0 0 0] ------- [0:0 1:0 32 0] [25 0] 0 0
r 1.311162228 _0_ RTR  --- 40 tcp 1540 [0 0 0 0] ------- [0:0 1:0 32 0] [25 0] 0 0
s 1.311162228 _0_ RTR  --- 40 tcp 1560 [0 0 0 0] ------- [0:0 1:0 32 1] [25 0] 0 0
s 1.311162228 _0_ AGT  --- 41 tcp 1540 [0 0 0 0] ------- [0:0 1:0 32 0] [26 0] 0 0
r 1.311162228 _0_ RTR  --- 41 tcp 1540 [0 0 0 0] ------- [0:0 1:0 32 0] [26 0] 0 0
s 1.311162228 _0_ RTR  --- 41 tcp 1560 [0 0 0 0] ------- [0:0 1:0 32 1] [26 0] 0 0
r 1.311451502 _1_ MAC  --- 0 ACK 38 [0 1 0 0] 
s 1.311721228 _0_ MAC  --- 0 RTS 44 [350e 1 0 0] 
r 1.312073503 _1_ MAC  --- 0 RTS 44 [350e 1 0 0] 
s 1.312083503 _1_ MAC  --- 0 CTS 38 [33d4 0 0 0] 
r 1.312387777 _0_ MAC  --- 0 CTS 38 [33d4 0 0 0] 
s 1.312397777 _0_ MAC  --- 23 tcp 1618 [13a 1 0 800] ------- [0:0 1:0 32 1] [13 0] 0 0
r 1.325342052 _1_ MAC  --- 23 tcp 1560 [13a 1 0 800] ------- [0:0 1:0 32 1] [13 0] 1 0
s 1.325352052 _1_ MAC  --- 0 ACK 38 [0 0 0 0] 
r 1.325367052 _1_ AGT  --- 23 tcp 1560 [13a 1 0 800] ------- [0:0 1:0 32 1] [13 0] 1 0
s 1.325367052 _1_ AGT  --- 42 ack 40 [0 0 0 0] ------- [1:0 0:0 32 0] [13 0] 0 0
r 1.325367052 _1_ RTR  --- 42 ack 40 [0 0 0 0] ------- [1:0 0:0 32 0] [13 0] 0 0
s 1.325367052 _1_ RTR  --- 42 ack 60 [0 0 0 0] ------- [1:0 0:0 32 0] [13 0] 0 0
r 1.325656335 _0_ MAC  --- 0 ACK 38 [0 0 0 0] 
s 1.325986052 _1_ MAC  --- 0 RTS 44 [62e 0 1 0] 
s 1.325986335 _0_ MAC  --- 0 RTS 44 [350e 1 0 0] 
s 1.327232335 _0_ MAC  --- 0 RTS 44 [350e 1 0 0] 
r 1.327584620 _1_ MAC  --- 0 RTS 44 [350e 1 0 0] 
s 1.327594620 _1_ MAC  --- 0 CTS 38 [33d4 0 0 0] 
r 1.327898905 _0_ MAC  --- 0 CTS 38 [33d4 0 0 0] 
s 1.327908905 _0_ MAC  --- 24 tcp 1618 [13a 1 0 800] ------- [0:0 1:0 32 1] [14 0] 0 0
r 1.340853190 _1_ MAC  --- 24 tcp 1560 [13a 1 0 800] ------- [0:0 1:0 32 1] [14 0] 1 0
s 1.340863190 _1_ MAC  --- 0 ACK 38 [0 0 0 0] 
r 1.340878190 _1_ AGT  --- 24 tcp 1560 [13a 1 0 800] ------- [0:0 1:0 32 1] [14 0] 1 0
s 1.340878190 _1_ AGT  --- 43 ack 40 [0 0 0 0] ------- [1:0 0:0 32 0] [14 0] 0 0
r 1.340878190 _1_ RTR  --- 43 ack 40 [0 0 0 0] ------- [1:0 0:0 32 0] [14 0] 0 0
s 1.340878190 _1_ RTR  --- 43 ack 60 [0 0 0 0] ------- [1:0 0:0 32 0] [14 0] 0 0
r 1.341167483 _0_ MAC  --- 0 ACK 38 [0 0 0 0] 
s 1.341677190 _1_ MAC  --- 0 RTS 44 [62e 0 1 0] 
r 1.342029484 _0_ MAC  --- 0 RTS 44 [62e 0 1 0] 
s 1.342039484 _0_ MAC  --- 0 CTS 38 [4f4 1 0 0] 
r 1.342343778 _1_ MAC  --- 0 CTS 38 [4f4 1 0 0] 
s 1.342353778 _1_ MAC  --- 42 ack 118 [13a 0 1 800] ------- [1:0 0:0 32 0] [13 0] 0 0
r 1.343298073 _0_ MAC  --- 42 ack 60 [13a 0 1 800] ------- [1:0 0:0 32 0] [13 0] 1 0
s 1.343308073 _0_ MAC  --- 0 ACK 38 [0 1 0 0] 
r 1.343323073 _0_ AGT  --- 42 ack 60 [13a 0 1 800] ------- [1:0 0:0 32 0] [13 0] 1 0
s 1.343323073 _0_ AGT  --- 44 tcp 1540 [0 0 0 0] ------- [0:0 1:0 32 0] [27 0] 0 0
r 1.343323073 _0_ RTR  --- 44 tcp 1540 [0 0 0 0] ------- [0:0 1:0 32 0] [27 0] 0 0
s 1.343323073 _0_ RTR  --- 44 tcp 1560 [0 0 0 0] ------- [0:0 1:0 32 1] [27 0] 0 0
s 1.343323073 _0_ AGT  --- 45 tcp 1540 [0 0 0 0] ------- [0:0 1:0 32 0] [28 0] 0 0
r 1.343323073 _0_ RTR  --- 45 tcp 1540 [0 0 0 0] ------- [0:0 1:0 32 0] [28 0] 0 0
s 1.343323073 _0_ RTR  --- 45 tcp 1560 [0 0 0 0] ------- [0:0 1:0 32 1] [28 0] 0 0
r 1.343612368 _1_ MAC  --- 0 ACK 38 [0 1 0 0] 
s 1.343662368 _1_ MAC  --- 0 RTS 44 [62e 0 1 0] 
r 1.344014663 _0_ MAC  --- 0 RTS 44 [62e 0 1 0] 
s 1.344024663 _0_ MAC  --- 0 CTS 38 [4f4 1 0 0] 
r 1.344328959 _1_ MAC  --- 0 CTS 38 [4f4 1 0 0] 
s 1.344338959 _1_ MAC  --- 43 ack 118 [13a 0 1 800] ------- [1:0 0:0 32 0] [14 0] 0 0
r 1.345283255 _0_ MAC  --- 43 ack 60 [13a 0 1 800] ------- [1:0 0:0 32 0] [14 0] 1 0
s 1.345293255 _0_ MAC  --- 0 ACK 38 [0 1 0 0] 
r 1.345308255 _0_ AGT  --- 43 ack 60 [13a 0 1 800] ------- [1:0 0:0 32 0] [14 0] 1 0
s 1.345308255 _0_ AGT  --- 46 tcp 1540 [0 0 0 0] ------- [0:0 1:0 32 0] [29 0] 0 0
r 1.345308255 _0_ RTR  --- 46 tcp 1540 [0 0 0 0] ------- [0:0 1:0 32 0] [29 0] 0 0
s 1.345308255 _0_ RTR  --- 46 tcp 1560 [0 0 0 0] ------- [0:0 1:0 32 1] [29 0] 0 0
s 1.345308255 _0_ AGT  --- 47 tcp 1540 [0 0 0 0] ------- [0:0 1:0 32 0] [30 0] 0 0
r 1.345308255 _0_ RTR  --- 47 tcp 1540 [0 0 0 0] ------- [0:0 1:0 32 0] [30 0] 0 0
s 1.345308255 _0_ RTR  --- 47 tcp 1560 [0 0 0 0] ------- [0:0 1:0 32 1] [30 0] 0 0
r 1.345597552 _1_ MAC  --- 0 ACK 38 [0 1 0 0] 
s 1.345667255 _0_ MAC  --- 0 RTS 44 [350e 1 0 0] 
r 1.346019552 _1_ MAC  --- 0 RTS 44 [350e 1 0 0] 
s 1.346029552 _1_ MAC  --- 0 CTS 38 [33d4 0 0 0] 
r 1.346333849 _0_ MAC  --- 0 CTS 38 [33d4 0 0 0] 
s 1.346343849 _0_ MAC  --- 25 tcp 1618 [13a 1 0 800] ------- [0:0 1:0 32 1] [15 0] 0 0
r 1.359288146 _1_ MAC  --- 25 tcp 1560 [13a 1 0 800] ------- [0:0 1:0 32 1] [15 0] 1 0
s 1.359298146 _1_ MAC  --- 0 ACK 38 [0 0 0 0] 
r 1.359313146 _1_ AGT  --- 25 tcp 1560 [13a 1 0 800] ------- [0:0 1:0 32 1] [15 0] 1 0
s 1.359313146 _1_ AGT  --- 48 ack 40 [0 0 0 0] ------- [1:0 0:0 32 0] [15 0] 0 0
r 1.359313146 _1_ RTR  --- 48 ack 40 [0 0 0 0] ------- [1:0 0:0 32 0] [15 0] 0 0
s 1.359313146 _1_ RTR  --- 48 ack 60 [0 0 0 0] ------- [1:0 0:0 32 0] [15 0] 0 0